thermo_log      ../DEM/post/thermo.txt

atom_style      granular
atom_modify     map array
communicate     single vel yes

boundary        f f f
newton          off

units           si
processors      2 2 1

region          reg block 0. 1. 0. 1. 0. 4. units box
create_box      1 reg
Created orthogonal box = (0 0 0) to (1 1 4)
  2 by 2 by 1 MPI processor grid

neighbor        0.3 bin
neigh_modify    delay 0 binsize 0.01


# Material properties required for new pair styles

fix             m1 all property/global youngsModulus peratomtype 5.e7
fix             m2 all property/global poissonsRatio peratomtype 0.45
fix             m3 all property/global coefficientRestitution peratomtypepair 1 0.9
fix             m4 all property/global coefficientFriction peratomtypepair 1 0.5

# pair style
pair_style      gran model hertz tangential history #Hertzian without cohesion
pair_coeff      * *

# timestep, gravity
timestep        0.00003

fix             gravi all gravity 9.81 vector 0.0 0.0 -1.0

# walls
fix     xwalls1 all wall/gran model hertz tangential history primitive type 1 xplane 0.
fix     xwalls2 all wall/gran model hertz tangential history primitive type 1 xplane 1.
fix     ywalls1 all wall/gran model hertz tangential history primitive type 1 yplane 0.
fix     ywalls2 all wall/gran model hertz tangential history primitive type 1 yplane 1.
fix     zwalls1 all wall/gran model hertz tangential history primitive type 1 zplane 0.
fix     zwalls2 all wall/gran model hertz tangential history primitive type 1 zplane 4.

# cfd coupling
fix     cfd  all couple/cfd couple_every 10 mpi
couple_every as specified in LIGGGHTS is overriden by calling external program (../fix_cfd_coupling.cpp:114)
fix     cfd2 all couple/cfd/force


# create single partciles
create_atoms 1 single .5 .5 3.5  units box
Created 1 atoms
#create_atoms 1 single .5 .5 3.16 units box
set atom 1 diameter 0.167 density 2500 vx 0 vy 0 vz -0.5
  1 settings made for diameter
  1 settings made for density
  1 settings made for vx
  1 settings made for vy
  1 settings made for vz
set atom 2 diameter 0.167 density 1.5 vx 0 vy 0 vz 0
  0 settings made for diameter
  0 settings made for density
  0 settings made for vx
  0 settings made for vy
  0 settings made for vz

variable        vx1 equal vx[1]
variable        vy1 equal vy[1]
variable        vz1 equal vz[1]
variable        vx2 equal vx[2]
variable        vy2 equal vy[2]
variable        vz2 equal vz[2]
variable        x1 equal x[1]
variable        y1 equal y[1]
variable        z1 equal z[1]
variable        x2 equal x[2]
variable        y2 equal y[2]
variable        z2 equal z[2]
variable        time equal step*dt

fix             extra1 all print 100 "${time} ${vx1} ${vy1} ${vz1}" file ../DEM/post/velocity_particle_1.txt title "%" screen no
fix             extra2 all print 100 "${time} ${vx2} ${vy2} ${vz2}" file ../DEM/post/velocity_particle_2.txt title "%" screen no
fix             extra3 all print 100 "${time} ${x1}  ${y1}  ${z1}"  file ../DEM/post/position_particle_1.txt title "%" screen no
fix             extra4 all print 100 "${time} ${x2}  ${y2}  ${z2}"  file ../DEM/post/position_particle_2.txt title "%" screen no


# apply nve integration to all particles that are inserted as single particles
fix             integr all nve/sphere #wenn das ausgeblendet, dann kein vel update

# screen output
compute         rke all erotate/sphere
thermo_style    custom step atoms ke c_rke vol
thermo          1000
thermo_modify   lost ignore norm no
compute_modify  thermo_temp dynamic yes
WARNING: Changing thermo_temp compute object. This object is deprecated and will be removed in the future. (../compute.cpp:161)

# insert the first particles so that dump is not empty
dump            dmp all custom 100 ../DEM/post/dump.liggghts_run id type x y z ix iy iz vx vy vz fx fy fz omegax omegay omegaz radius

#force : f_couple_cfd[0] f_couple_cfd[1] f_couple_cfd[2]
#node : f_couple_cfd[6]
#cell id : f_couple_cfd[7]

run             1
Setting up run at Wed Jul 10 11:27:18 2019

Memory usage per processor = 47.8413 Mbytes
    Step    Atoms         KinEng            rke         Volume 
       0        1      0.7620756              0              4 
       1        1     0.76297298              0              4 
Loop time of 2.57492e-05 on 4 procs for 1 steps with 1 atoms, finish time Wed Jul 10 11:27:18 2019


Pair  time (%) = 2.74181e-06 (10.6481)
Neigh time (%) = 0 (0)
Comm  time (%) = 3.8147e-06 (14.8148)
Outpt time (%) = 8.22544e-06 (31.9444)
Other time (%) = 1.09673e-05 (42.5926)

Nlocal:    0.25 ave 1 max 0 min
Histogram: 3 0 0 0 0 0 0 0 0 1
Nghost:    0.75 ave 1 max 0 min
Histogram: 1 0 0 0 0 0 0 0 0 3
Neighs:    0 ave 0 max 0 min
Histogram: 4 0 0 0 0 0 0 0 0 0

Total # of neighbors = 0
Ave neighs/atom = 0
Neighbor list builds = 0
Dangerous builds = 0

run 10    
Setting up run at Wed Jul 10 11:27:18 2019

Memory usage per processor = 47.8413 Mbytes
    Step    Atoms         KinEng            rke         Volume 
       1        1     0.76297298              0              4 
CFD Coupling established at step 10
      11        1     0.77197582              0              4 
Loop time of 4.00543e-05 on 4 procs for 10 steps with 1 atoms, finish time Wed Jul 10 11:27:18 2019


Pair  time (%) = 3.57628e-06 (8.92857)
Neigh time (%) = 0 (0)
Comm  time (%) = 7.15256e-06 (17.8571)
Outpt time (%) = 6.02007e-06 (15.0298)
Other time (%) = 2.33054e-05 (58.1845)

Nlocal:    0.25 ave 1 max 0 min
Histogram: 3 0 0 0 0 0 0 0 0 1
Nghost:    0.75 ave 1 max 0 min
Histogram: 1 0 0 0 0 0 0 0 0 3
Neighs:    0 ave 0 max 0 min
Histogram: 4 0 0 0 0 0 0 0 0 0

Total # of neighbors = 0
Ave neighs/atom = 0
Neighbor list builds = 0
Dangerous builds = 0
run 10    
Setting up run at Wed Jul 10 11:27:18 2019

Memory usage per processor = 47.8413 Mbytes
    Step    Atoms         KinEng            rke         Volume 
      11        1     0.77197582              0              4 
CFD Coupling established at step 20
      21        1     0.77969665              0              4 
Loop time of 3.05176e-05 on 4 procs for 10 steps with 1 atoms, finish time Wed Jul 10 11:27:18 2019


Pair  time (%) = 2.14577e-06 (7.03125)
Neigh time (%) = 0 (0)
Comm  time (%) = 6.67572e-06 (21.875)
Outpt time (%) = 4.29153e-06 (14.0625)
Other time (%) = 1.74046e-05 (57.0312)

Nlocal:    0.25 ave 1 max 0 min
Histogram: 3 0 0 0 0 0 0 0 0 1
Nghost:    0.75 ave 1 max 0 min
Histogram: 1 0 0 0 0 0 0 0 0 3
Neighs:    0 ave 0 max 0 min
Histogram: 4 0 0 0 0 0 0 0 0 0

Total # of neighbors = 0
Ave neighs/atom = 0
Neighbor list builds = 0
Dangerous builds = 0
run 10    
Setting up run at Wed Jul 10 11:27:18 2019

Memory usage per processor = 47.8413 Mbytes
    Step    Atoms         KinEng            rke         Volume 
      21        1     0.77969665              0              4 
CFD Coupling established at step 30
      31        1     0.78873475              0              4 
Loop time of 4.17233e-05 on 4 procs for 10 steps with 1 atoms, finish time Wed Jul 10 11:27:18 2019


Pair  time (%) = 4.64916e-06 (11.1429)
Neigh time (%) = 0 (0)
Comm  time (%) = 4.52995e-06 (10.8571)
Outpt time (%) = 5.78165e-06 (13.8571)
Other time (%) = 2.67625e-05 (64.1429)

Nlocal:    0.25 ave 1 max 0 min
Histogram: 3 0 0 0 0 0 0 0 0 1
Nghost:    0.75 ave 1 max 0 min
Histogram: 1 0 0 0 0 0 0 0 0 3
Neighs:    0 ave 0 max 0 min
Histogram: 4 0 0 0 0 0 0 0 0 0

Total # of neighbors = 0
Ave neighs/atom = 0
Neighbor list builds = 0
Dangerous builds = 0
run 10    
Setting up run at Wed Jul 10 11:27:18 2019

Memory usage per processor = 51.8086 Mbytes
    Step    Atoms         KinEng            rke         Volume 
      31        1     0.78873475              0              4 
CFD Coupling established at step 40
      41        1     0.79768741              0              4 
Loop time of 3.79086e-05 on 4 procs for 10 steps with 1 atoms, finish time Wed Jul 10 11:27:18 2019


Pair  time (%) = 9.53674e-07 (2.51572)
Neigh time (%) = 0 (0)
Comm  time (%) = 8.9407e-06 (23.5849)
Outpt time (%) = 5.78165e-06 (15.2516)
Other time (%) = 2.22325e-05 (58.6478)

Nlocal:    0.25 ave 1 max 0 min
Histogram: 3 0 0 0 0 0 0 0 0 1
Nghost:    0.75 ave 1 max 0 min
Histogram: 1 0 0 0 0 0 0 0 0 3
Neighs:    0 ave 0 max 0 min
Histogram: 4 0 0 0 0 0 0 0 0 0

Total # of neighbors = 0
Ave neighs/atom = 0
Neighbor list builds = 0
Dangerous builds = 0
run 10    
Setting up run at Wed Jul 10 11:27:18 2019

Memory usage per processor = 51.8086 Mbytes
    Step    Atoms         KinEng            rke         Volume 
      41        1     0.79768741              0              4 
CFD Coupling established at step 50
      51        1     0.80673519              0              4 
Loop time of 3.50475e-05 on 4 procs for 10 steps with 1 atoms, finish time Wed Jul 10 11:27:18 2019


Pair  time (%) = 4.47035e-06 (12.7551)
Neigh time (%) = 0 (0)
Comm  time (%) = 5.06639e-06 (14.4558)
Outpt time (%) = 5.06639e-06 (14.4558)
Other time (%) = 2.04444e-05 (58.3333)

Nlocal:    0.25 ave 1 max 0 min
Histogram: 3 0 0 0 0 0 0 0 0 1
Nghost:    0.75 ave 1 max 0 min
Histogram: 1 0 0 0 0 0 0 0 0 3
Neighs:    0 ave 0 max 0 min
Histogram: 4 0 0 0 0 0 0 0 0 0

Total # of neighbors = 0
Ave neighs/atom = 0
Neighbor list builds = 0
Dangerous builds = 0
run 10    
Setting up run at Wed Jul 10 11:27:18 2019

Memory usage per processor = 51.8086 Mbytes
    Step    Atoms         KinEng            rke         Volume 
      51        1     0.80673519              0              4 
CFD Coupling established at step 60
      61        1       0.815918              0              4 
Loop time of 3.60012e-05 on 4 procs for 10 steps with 1 atoms, finish time Wed Jul 10 11:27:18 2019


Pair  time (%) = 3.93391e-06 (10.9272)
Neigh time (%) = 0 (0)
Comm  time (%) = 5.1856e-06 (14.404)
Outpt time (%) = 5.24521e-06 (14.5695)
Other time (%) = 2.16365e-05 (60.0993)

Nlocal:    0.25 ave 1 max 0 min
Histogram: 3 0 0 0 0 0 0 0 0 1
Nghost:    0.75 ave 1 max 0 min
Histogram: 1 0 0 0 0 0 0 0 0 3
Neighs:    0 ave 0 max 0 min
Histogram: 4 0 0 0 0 0 0 0 0 0

Total # of neighbors = 0
Ave neighs/atom = 0
Neighbor list builds = 0
Dangerous builds = 0
run 10    
Setting up run at Wed Jul 10 11:27:18 2019

Memory usage per processor = 51.8086 Mbytes
    Step    Atoms         KinEng            rke         Volume 
      61        1       0.815918              0              4 
CFD Coupling established at step 70
      71        1     0.82518639              0              4 
Loop time of 3.60012e-05 on 4 procs for 10 steps with 1 atoms, finish time Wed Jul 10 11:27:18 2019


Pair  time (%) = 3.51667e-06 (9.76821)
Neigh time (%) = 0 (0)
Comm  time (%) = 7.03335e-06 (19.5364)
Outpt time (%) = 5.24521e-06 (14.5695)
Other time (%) = 2.0206e-05 (56.1258)

Nlocal:    0.25 ave 1 max 0 min
Histogram: 3 0 0 0 0 0 0 0 0 1
Nghost:    0.75 ave 1 max 0 min
Histogram: 1 0 0 0 0 0 0 0 0 3
Neighs:    0 ave 0 max 0 min
Histogram: 4 0 0 0 0 0 0 0 0 0

Total # of neighbors = 0
Ave neighs/atom = 0
Neighbor list builds = 0
Dangerous builds = 0
run 10    
Setting up run at Wed Jul 10 11:27:19 2019

Memory usage per processor = 51.8086 Mbytes
    Step    Atoms         KinEng            rke         Volume 
      71        1     0.82518639              0              4 
CFD Coupling established at step 80
      81        1     0.83451671              0              4 
Loop time of 4.1008e-05 on 4 procs for 10 steps with 1 atoms, finish time Wed Jul 10 11:27:19 2019


Pair  time (%) = 3.33786e-06 (8.13953)
Neigh time (%) = 0 (0)
Comm  time (%) = 9.95398e-06 (24.2733)
Outpt time (%) = 4.64916e-06 (11.3372)
Other time (%) = 2.3067e-05 (56.25)

Nlocal:    0.25 ave 1 max 0 min
Histogram: 3 0 0 0 0 0 0 0 0 1
Nghost:    0.75 ave 1 max 0 min
Histogram: 1 0 0 0 0 0 0 0 0 3
Neighs:    0 ave 0 max 0 min
Histogram: 4 0 0 0 0 0 0 0 0 0

Total # of neighbors = 0
Ave neighs/atom = 0
Neighbor list builds = 0
Dangerous builds = 0
run 10    
Setting up run at Wed Jul 10 11:27:19 2019

Memory usage per processor = 51.8086 Mbytes
    Step    Atoms         KinEng            rke         Volume 
      81        1     0.83451671              0              4 
CFD Coupling established at step 90
      91        1     0.84390458              0              4 
Loop time of 3.92795e-05 on 4 procs for 10 steps with 1 atoms, finish time Wed Jul 10 11:27:19 2019


Pair  time (%) = 3.39746e-06 (8.64947)
Neigh time (%) = 0 (0)
Comm  time (%) = 4.17233e-06 (10.6222)
Outpt time (%) = 5.24521e-06 (13.3536)
Other time (%) = 2.64645e-05 (67.3748)

Nlocal:    0.25 ave 1 max 0 min
Histogram: 3 0 0 0 0 0 0 0 0 1
Nghost:    0.75 ave 1 max 0 min
Histogram: 1 0 0 0 0 0 0 0 0 3
Neighs:    0 ave 0 max 0 min
Histogram: 4 0 0 0 0 0 0 0 0 0

Total # of neighbors = 0
Ave neighs/atom = 0
Neighbor list builds = 0
Dangerous builds = 0
run 10    
Setting up run at Wed Jul 10 11:27:19 2019

Memory usage per processor = 51.8086 Mbytes
    Step    Atoms         KinEng            rke         Volume 
      91        1     0.84390458              0              4 
CFD Coupling established at step 100
     101        1     0.85334757              0              4 
Loop time of 0.000169992 on 4 procs for 10 steps with 1 atoms, finish time Wed Jul 10 11:27:19 2019


Pair  time (%) = 5.84126e-06 (3.43619)
Neigh time (%) = 0 (0)
Comm  time (%) = 8.58307e-06 (5.04909)
Outpt time (%) = 2.64049e-05 (15.533)
Other time (%) = 0.000129163 (75.9818)

Nlocal:    0.25 ave 1 max 0 min
Histogram: 3 0 0 0 0 0 0 0 0 1
Nghost:    0.75 ave 1 max 0 min
Histogram: 1 0 0 0 0 0 0 0 0 3
Neighs:    0 ave 0 max 0 min
Histogram: 4 0 0 0 0 0 0 0 0 0

Total # of neighbors = 0
Ave neighs/atom = 0
Neighbor list builds = 0
Dangerous builds = 0
run 10    
Setting up run at Wed Jul 10 11:27:19 2019

Memory usage per processor = 51.8086 Mbytes
    Step    Atoms         KinEng            rke         Volume 
     101        1     0.85334757              0              4 
CFD Coupling established at step 110
     111        1     0.86284479              0              4 
Loop time of 4.57168e-05 on 4 procs for 10 steps with 1 atoms, finish time Wed Jul 10 11:27:19 2019


Pair  time (%) = 5.126e-06 (11.2125)
Neigh time (%) = 0 (0)
Comm  time (%) = 7.56979e-06 (16.558)
Outpt time (%) = 5.72205e-06 (12.5163)
Other time (%) = 2.72989e-05 (59.7132)

Nlocal:    0.25 ave 1 max 0 min
Histogram: 3 0 0 0 0 0 0 0 0 1
Nghost:    0.75 ave 1 max 0 min
Histogram: 1 0 0 0 0 0 0 0 0 3
Neighs:    0 ave 0 max 0 min
Histogram: 4 0 0 0 0 0 0 0 0 0

Total # of neighbors = 0
Ave neighs/atom = 0
Neighbor list builds = 0
Dangerous builds = 0
run 10    
Setting up run at Wed Jul 10 11:27:19 2019

Memory usage per processor = 51.8086 Mbytes
    Step    Atoms         KinEng            rke         Volume 
     111        1     0.86284479              0              4 
CFD Coupling established at step 120
     121        1     0.87239569              0              4 
Loop time of 3.60012e-05 on 4 procs for 10 steps with 1 atoms, finish time Wed Jul 10 11:27:19 2019


Pair  time (%) = 2.6226e-06 (7.28477)
Neigh time (%) = 0 (0)
Comm  time (%) = 4.76837e-06 (13.245)
Outpt time (%) = 5.24521e-06 (14.5695)
Other time (%) = 2.3365e-05 (64.9007)

Nlocal:    0.25 ave 1 max 0 min
Histogram: 3 0 0 0 0 0 0 0 0 1
Nghost:    0.75 ave 1 max 0 min
Histogram: 1 0 0 0 0 0 0 0 0 3
Neighs:    0 ave 0 max 0 min
Histogram: 4 0 0 0 0 0 0 0 0 0

Total # of neighbors = 0
Ave neighs/atom = 0
Neighbor list builds = 0
Dangerous builds = 0
run 10    
Setting up run at Wed Jul 10 11:27:19 2019

Memory usage per processor = 51.8086 Mbytes
    Step    Atoms         KinEng            rke         Volume 
     121        1     0.87239569              0              4 
CFD Coupling established at step 130
     131        1     0.88199988              0              4 
Loop time of 3.8147e-05 on 4 procs for 10 steps with 1 atoms, finish time Wed Jul 10 11:27:19 2019


Pair  time (%) = 4.58956e-06 (12.0312)
Neigh time (%) = 0 (0)
Comm  time (%) = 5.48363e-06 (14.375)
Outpt time (%) = 5.48363e-06 (14.375)
Other time (%) = 2.25902e-05 (59.2188)

Nlocal:    0.25 ave 1 max 0 min
Histogram: 3 0 0 0 0 0 0 0 0 1
Nghost:    0.75 ave 1 max 0 min
Histogram: 1 0 0 0 0 0 0 0 0 3
Neighs:    0 ave 0 max 0 min
Histogram: 4 0 0 0 0 0 0 0 0 0

Total # of neighbors = 0
Ave neighs/atom = 0
Neighbor list builds = 0
Dangerous builds = 0
run 10    
Setting up run at Wed Jul 10 11:27:19 2019

Memory usage per processor = 51.8086 Mbytes
    Step    Atoms         KinEng            rke         Volume 
     131        1     0.88199988              0              4 
CFD Coupling established at step 140
     141        1     0.89165728              0              4 
Loop time of 4.52995e-05 on 4 procs for 10 steps with 1 atoms, finish time Wed Jul 10 11:27:19 2019


Pair  time (%) = 4.41074e-06 (9.73684)
Neigh time (%) = 0 (0)
Comm  time (%) = 7.98702e-06 (17.6316)
Outpt time (%) = 5.78165e-06 (12.7632)
Other time (%) = 2.71201e-05 (59.8684)

Nlocal:    0.25 ave 1 max 0 min
Histogram: 3 0 0 0 0 0 0 0 0 1
Nghost:    0.75 ave 1 max 0 min
Histogram: 1 0 0 0 0 0 0 0 0 3
Neighs:    0 ave 0 max 0 min
Histogram: 4 0 0 0 0 0 0 0 0 0

Total # of neighbors = 0
Ave neighs/atom = 0
Neighbor list builds = 0
Dangerous builds = 0
run 10    
Setting up run at Wed Jul 10 11:27:19 2019

Memory usage per processor = 51.8086 Mbytes
    Step    Atoms         KinEng            rke         Volume 
     141        1     0.89165728              0              4 
CFD Coupling established at step 150
     151        1     0.90136778              0              4 
Loop time of 4.41074e-05 on 4 procs for 10 steps with 1 atoms, finish time Wed Jul 10 11:27:19 2019


Pair  time (%) = 2.44379e-06 (5.54054)
Neigh time (%) = 0 (0)
Comm  time (%) = 7.92742e-06 (17.973)
Outpt time (%) = 5.54323e-06 (12.5676)
Other time (%) = 2.8193e-05 (63.9189)

Nlocal:    0.25 ave 1 max 0 min
Histogram: 3 0 0 0 0 0 0 0 0 1
Nghost:    0.75 ave 1 max 0 min
Histogram: 1 0 0 0 0 0 0 0 0 3
Neighs:    0 ave 0 max 0 min
Histogram: 4 0 0 0 0 0 0 0 0 0

Total # of neighbors = 0
Ave neighs/atom = 0
Neighbor list builds = 0
Dangerous builds = 0
run 10    
Setting up run at Wed Jul 10 11:27:19 2019

Memory usage per processor = 51.8086 Mbytes
    Step    Atoms         KinEng            rke         Volume 
     151        1     0.90136778              0              4 
CFD Coupling established at step 160
     161        1     0.91113127              0              4 
Loop time of 3.74317e-05 on 4 procs for 10 steps with 1 atoms, finish time Wed Jul 10 11:27:19 2019


Pair  time (%) = 2.32458e-06 (6.21019)
Neigh time (%) = 0 (0)
Comm  time (%) = 1.04904e-05 (28.0255)
Outpt time (%) = 5.48363e-06 (14.6497)
Other time (%) = 1.91331e-05 (51.1146)

Nlocal:    0.25 ave 1 max 0 min
Histogram: 3 0 0 0 0 0 0 0 0 1
Nghost:    0.75 ave 1 max 0 min
Histogram: 1 0 0 0 0 0 0 0 0 3
Neighs:    0 ave 0 max 0 min
Histogram: 4 0 0 0 0 0 0 0 0 0

Total # of neighbors = 0
Ave neighs/atom = 0
Neighbor list builds = 0
Dangerous builds = 0
run 10    
Setting up run at Wed Jul 10 11:27:19 2019

Memory usage per processor = 51.8086 Mbytes
    Step    Atoms         KinEng            rke         Volume 
     161        1     0.91113127              0              4 
CFD Coupling established at step 170
     171        1     0.92094772              0              4 
Loop time of 3.72529e-05 on 4 procs for 10 steps with 1 atoms, finish time Wed Jul 10 11:27:19 2019


Pair  time (%) = 2.32458e-06 (6.24)
Neigh time (%) = 0 (0)
Comm  time (%) = 7.7486e-06 (20.8)
Outpt time (%) = 4.82798e-06 (12.96)
Other time (%) = 2.23517e-05 (60)

Nlocal:    0.25 ave 1 max 0 min
Histogram: 3 0 0 0 0 0 0 0 0 1
Nghost:    0.75 ave 1 max 0 min
Histogram: 1 0 0 0 0 0 0 0 0 3
Neighs:    0 ave 0 max 0 min
Histogram: 4 0 0 0 0 0 0 0 0 0

Total # of neighbors = 0
Ave neighs/atom = 0
Neighbor list builds = 0
Dangerous builds = 0
run 10    
Setting up run at Wed Jul 10 11:27:19 2019

Memory usage per processor = 51.8086 Mbytes
    Step    Atoms         KinEng            rke         Volume 
     171        1     0.92094772              0              4 
CFD Coupling established at step 180
     181        1     0.93081707              0              4 
Loop time of 3.86238e-05 on 4 procs for 10 steps with 1 atoms, finish time Wed Jul 10 11:27:19 2019


Pair  time (%) = 4.17233e-06 (10.8025)
Neigh time (%) = 0 (0)
Comm  time (%) = 5.06639e-06 (13.1173)
Outpt time (%) = 5.1856e-06 (13.4259)
Other time (%) = 2.41995e-05 (62.6543)

Nlocal:    0.25 ave 1 max 0 min
Histogram: 3 0 0 0 0 0 0 0 0 1
Nghost:    0.75 ave 1 max 0 min
Histogram: 1 0 0 0 0 0 0 0 0 3
Neighs:    0 ave 0 max 0 min
Histogram: 4 0 0 0 0 0 0 0 0 0

Total # of neighbors = 0
Ave neighs/atom = 0
Neighbor list builds = 0
Dangerous builds = 0
run 10    
Setting up run at Wed Jul 10 11:27:19 2019

Memory usage per processor = 51.8086 Mbytes
    Step    Atoms         KinEng            rke         Volume 
     181        1     0.93081707              0              4 
CFD Coupling established at step 190
     191        1     0.94073929              0              4 
Loop time of 3.57032e-05 on 4 procs for 10 steps with 1 atoms, finish time Wed Jul 10 11:27:19 2019


Pair  time (%) = 1.19209e-06 (3.3389)
Neigh time (%) = 0 (0)
Comm  time (%) = 5.66244e-06 (15.8598)
Outpt time (%) = 4.76837e-06 (13.3556)
Other time (%) = 2.40803e-05 (67.4457)

Nlocal:    0.25 ave 1 max 0 min
Histogram: 3 0 0 0 0 0 0 0 0 1
Nghost:    0.75 ave 1 max 0 min
Histogram: 1 0 0 0 0 0 0 0 0 3
Neighs:    0 ave 0 max 0 min
Histogram: 4 0 0 0 0 0 0 0 0 0

Total # of neighbors = 0
Ave neighs/atom = 0
Neighbor list builds = 0
Dangerous builds = 0
run 10    
Setting up run at Wed Jul 10 11:27:19 2019

Memory usage per processor = 51.8086 Mbytes
    Step    Atoms         KinEng            rke         Volume 
     191        1     0.94073929              0              4 
CFD Coupling established at step 200
     201        1     0.95071435              0              4 
Loop time of 9.10759e-05 on 4 procs for 10 steps with 1 atoms, finish time Wed Jul 10 11:27:19 2019


Pair  time (%) = 1.72853e-06 (1.89791)
Neigh time (%) = 0 (0)
Comm  time (%) = 6.85453e-06 (7.52618)
Outpt time (%) = 1.70469e-05 (18.7173)
Other time (%) = 6.54459e-05 (71.8586)

Nlocal:    0.25 ave 1 max 0 min
Histogram: 3 0 0 0 0 0 0 0 0 1
Nghost:    0.75 ave 1 max 0 min
Histogram: 1 0 0 0 0 0 0 0 0 3
Neighs:    0 ave 0 max 0 min
Histogram: 4 0 0 0 0 0 0 0 0 0

Total # of neighbors = 0
Ave neighs/atom = 0
Neighbor list builds = 0
Dangerous builds = 0
run 10    
Setting up run at Wed Jul 10 11:27:19 2019

Memory usage per processor = 51.8086 Mbytes
    Step    Atoms         KinEng            rke         Volume 
     201        1     0.95071435              0              4 
CFD Coupling established at step 210
     211        1     0.96074223              0              4 
Loop time of 3.48091e-05 on 4 procs for 10 steps with 1 atoms, finish time Wed Jul 10 11:27:19 2019


Pair  time (%) = 4.23193e-06 (12.1575)
Neigh time (%) = 0 (0)
Comm  time (%) = 5.42402e-06 (15.5822)
Outpt time (%) = 5.48363e-06 (15.7534)
Other time (%) = 1.96695e-05 (56.5068)

Nlocal:    0.25 ave 1 max 0 min
Histogram: 3 0 0 0 0 0 0 0 0 1
Nghost:    0.75 ave 1 max 0 min
Histogram: 1 0 0 0 0 0 0 0 0 3
Neighs:    0 ave 0 max 0 min
Histogram: 4 0 0 0 0 0 0 0 0 0

Total # of neighbors = 0
Ave neighs/atom = 0
Neighbor list builds = 0
Dangerous builds = 0
run 10    
Setting up run at Wed Jul 10 11:27:19 2019

Memory usage per processor = 51.8086 Mbytes
    Step    Atoms         KinEng            rke         Volume 
     211        1     0.96074223              0              4 
CFD Coupling established at step 220
     221        1     0.97082293              0              4 
Loop time of 3.79086e-05 on 4 procs for 10 steps with 1 atoms, finish time Wed Jul 10 11:27:19 2019


Pair  time (%) = 3.33786e-06 (8.80503)
Neigh time (%) = 0 (0)
Comm  time (%) = 6.07967e-06 (16.0377)
Outpt time (%) = 5.24521e-06 (13.8365)
Other time (%) = 2.32458e-05 (61.3208)

Nlocal:    0.25 ave 1 max 0 min
Histogram: 3 0 0 0 0 0 0 0 0 1
Nghost:    0.75 ave 1 max 0 min
Histogram: 1 0 0 0 0 0 0 0 0 3
Neighs:    0 ave 0 max 0 min
Histogram: 4 0 0 0 0 0 0 0 0 0

Total # of neighbors = 0
Ave neighs/atom = 0
Neighbor list builds = 0
Dangerous builds = 0
run 10    
Setting up run at Wed Jul 10 11:27:19 2019

Memory usage per processor = 51.8086 Mbytes
    Step    Atoms         KinEng            rke         Volume 
     221        1     0.97082293              0              4 
CFD Coupling established at step 230
     231        1     0.98095646              0              4 
Loop time of 4.91142e-05 on 4 procs for 10 steps with 1 atoms, finish time Wed Jul 10 11:27:19 2019


Pair  time (%) = 5.1856e-06 (10.5583)
Neigh time (%) = 0 (0)
Comm  time (%) = 5.66244e-06 (11.5291)
Outpt time (%) = 6.73532e-06 (13.7136)
Other time (%) = 3.15309e-05 (64.199)

Nlocal:    0.25 ave 1 max 0 min
Histogram: 3 0 0 0 0 0 0 0 0 1
Nghost:    0.75 ave 1 max 0 min
Histogram: 1 0 0 0 0 0 0 0 0 3
Neighs:    0 ave 0 max 0 min
Histogram: 4 0 0 0 0 0 0 0 0 0

Total # of neighbors = 0
Ave neighs/atom = 0
Neighbor list builds = 0
Dangerous builds = 0
run 10    
Setting up run at Wed Jul 10 11:27:19 2019

Memory usage per processor = 51.8086 Mbytes
    Step    Atoms         KinEng            rke         Volume 
     231        1     0.98095646              0              4 
CFD Coupling established at step 240
     241        1     0.99114275              0              4 
Loop time of 4.1008e-05 on 4 procs for 10 steps with 1 atoms, finish time Wed Jul 10 11:27:19 2019


Pair  time (%) = 5.06639e-06 (12.3547)
Neigh time (%) = 0 (0)
Comm  time (%) = 3.09944e-06 (7.55814)
Outpt time (%) = 5.78165e-06 (14.0988)
Other time (%) = 2.70605e-05 (65.9884)

Nlocal:    0.25 ave 1 max 0 min
Histogram: 3 0 0 0 0 0 0 0 0 1
Nghost:    0.75 ave 1 max 0 min
Histogram: 1 0 0 0 0 0 0 0 0 3
Neighs:    0 ave 0 max 0 min
Histogram: 4 0 0 0 0 0 0 0 0 0

Total # of neighbors = 0
Ave neighs/atom = 0
Neighbor list builds = 0
Dangerous builds = 0
run 10    
Setting up run at Wed Jul 10 11:27:19 2019

Memory usage per processor = 51.8086 Mbytes
    Step    Atoms         KinEng            rke         Volume 
     241        1     0.99114275              0              4 
CFD Coupling established at step 250
     251        1      1.0013818              0              4 
Loop time of 3.88026e-05 on 4 procs for 10 steps with 1 atoms, finish time Wed Jul 10 11:27:19 2019


Pair  time (%) = 2.74181e-06 (7.06605)
Neigh time (%) = 0 (0)
Comm  time (%) = 7.7486e-06 (19.9693)
Outpt time (%) = 4.94719e-06 (12.7496)
Other time (%) = 2.3365e-05 (60.2151)

Nlocal:    0.25 ave 1 max 0 min
Histogram: 3 0 0 0 0 0 0 0 0 1
Nghost:    0.75 ave 1 max 0 min
Histogram: 1 0 0 0 0 0 0 0 0 3
Neighs:    0 ave 0 max 0 min
Histogram: 4 0 0 0 0 0 0 0 0 0

Total # of neighbors = 0
Ave neighs/atom = 0
Neighbor list builds = 0
Dangerous builds = 0
run 10    
Setting up run at Wed Jul 10 11:27:19 2019

Memory usage per processor = 51.8086 Mbytes
    Step    Atoms         KinEng            rke         Volume 
     251        1      1.0013818              0              4 
CFD Coupling established at step 260
     261        1      1.0116736              0              4 
Loop time of 3.88622e-05 on 4 procs for 10 steps with 1 atoms, finish time Wed Jul 10 11:27:19 2019


Pair  time (%) = 2.80142e-06 (7.20859)
Neigh time (%) = 0 (0)
Comm  time (%) = 5.84126e-06 (15.0307)
Outpt time (%) = 5.78165e-06 (14.8773)
Other time (%) = 2.44379e-05 (62.8834)

Nlocal:    0.25 ave 1 max 0 min
Histogram: 3 0 0 0 0 0 0 0 0 1
Nghost:    0.75 ave 1 max 0 min
Histogram: 1 0 0 0 0 0 0 0 0 3
Neighs:    0 ave 0 max 0 min
Histogram: 4 0 0 0 0 0 0 0 0 0

Total # of neighbors = 0
Ave neighs/atom = 0
Neighbor list builds = 0
Dangerous builds = 0
run 10    
Setting up run at Wed Jul 10 11:27:19 2019

Memory usage per processor = 51.8086 Mbytes
    Step    Atoms         KinEng            rke         Volume 
     261        1      1.0116736              0              4 
CFD Coupling established at step 270
     271        1      1.0220181              0              4 
Loop time of 3.75509e-05 on 4 procs for 10 steps with 1 atoms, finish time Wed Jul 10 11:27:19 2019


Pair  time (%) = 3.45707e-06 (9.20635)
Neigh time (%) = 0 (0)
Comm  time (%) = 5.66244e-06 (15.0794)
Outpt time (%) = 5.00679e-06 (13.3333)
Other time (%) = 2.34246e-05 (62.381)

Nlocal:    0.25 ave 1 max 0 min
Histogram: 3 0 0 0 0 0 0 0 0 1
Nghost:    0.75 ave 1 max 0 min
Histogram: 1 0 0 0 0 0 0 0 0 3
Neighs:    0 ave 0 max 0 min
Histogram: 4 0 0 0 0 0 0 0 0 0

Total # of neighbors = 0
Ave neighs/atom = 0
Neighbor list builds = 0
Dangerous builds = 0
run 10    
Setting up run at Wed Jul 10 11:27:19 2019

Memory usage per processor = 51.8086 Mbytes
    Step    Atoms         KinEng            rke         Volume 
     271        1      1.0220181              0              4 
CFD Coupling established at step 280
     281        1      1.0324154              0              4 
Loop time of 3.29018e-05 on 4 procs for 10 steps with 1 atoms, finish time Wed Jul 10 11:27:19 2019


Pair  time (%) = 5.126e-06 (15.5797)
Neigh time (%) = 0 (0)
Comm  time (%) = 3.8743e-06 (11.7754)
Outpt time (%) = 4.76837e-06 (14.4928)
Other time (%) = 1.91331e-05 (58.1522)

Nlocal:    0.25 ave 1 max 0 min
Histogram: 3 0 0 0 0 0 0 0 0 1
Nghost:    0.75 ave 1 max 0 min
Histogram: 1 0 0 0 0 0 0 0 0 3
Neighs:    0 ave 0 max 0 min
Histogram: 4 0 0 0 0 0 0 0 0 0

Total # of neighbors = 0
Ave neighs/atom = 0
Neighbor list builds = 0
Dangerous builds = 0
run 10    
Setting up run at Wed Jul 10 11:27:19 2019

Memory usage per processor = 51.8086 Mbytes
    Step    Atoms         KinEng            rke         Volume 
     281        1      1.0324154              0              4 
CFD Coupling established at step 290
     291        1      1.0428653              0              4 
Loop time of 3.71933e-05 on 4 procs for 10 steps with 1 atoms, finish time Wed Jul 10 11:27:19 2019


Pair  time (%) = 4.52995e-06 (12.1795)
Neigh time (%) = 0 (0)
Comm  time (%) = 5.60284e-06 (15.0641)
Outpt time (%) = 4.76837e-06 (12.8205)
Other time (%) = 2.22921e-05 (59.9359)

Nlocal:    0.25 ave 1 max 0 min
Histogram: 3 0 0 0 0 0 0 0 0 1
Nghost:    0.75 ave 1 max 0 min
Histogram: 1 0 0 0 0 0 0 0 0 3
Neighs:    0 ave 0 max 0 min
Histogram: 4 0 0 0 0 0 0 0 0 0

Total # of neighbors = 0
Ave neighs/atom = 0
Neighbor list builds = 0
Dangerous builds = 0
run 10    
Setting up run at Wed Jul 10 11:27:19 2019

Memory usage per processor = 51.8086 Mbytes
    Step    Atoms         KinEng            rke         Volume 
     291        1      1.0428653              0              4 
CFD Coupling established at step 300
     301        1      1.0533681              0              4 
Loop time of 0.000100374 on 4 procs for 10 steps with 1 atoms, finish time Wed Jul 10 11:27:19 2019


Pair  time (%) = 2.98023e-06 (2.96912)
Neigh time (%) = 0 (0)
Comm  time (%) = 9.77516e-06 (9.73872)
Outpt time (%) = 1.95503e-05 (19.4774)
Other time (%) = 6.80685e-05 (67.8147)

Nlocal:    0.25 ave 1 max 0 min
Histogram: 3 0 0 0 0 0 0 0 0 1
Nghost:    0.75 ave 1 max 0 min
Histogram: 1 0 0 0 0 0 0 0 0 3
Neighs:    0 ave 0 max 0 min
Histogram: 4 0 0 0 0 0 0 0 0 0

Total # of neighbors = 0
Ave neighs/atom = 0
Neighbor list builds = 0
Dangerous builds = 0
run 10    
Setting up run at Wed Jul 10 11:27:19 2019

Memory usage per processor = 51.8086 Mbytes
    Step    Atoms         KinEng            rke         Volume 
     301        1      1.0533681              0              4 
CFD Coupling established at step 310
     311        1      1.0639236              0              4 
Loop time of 4.02927e-05 on 4 procs for 10 steps with 1 atoms, finish time Wed Jul 10 11:27:19 2019


Pair  time (%) = 4.29153e-06 (10.6509)
Neigh time (%) = 0 (0)
Comm  time (%) = 5.84126e-06 (14.497)
Outpt time (%) = 4.82798e-06 (11.9822)
Other time (%) = 2.5332e-05 (62.8698)

Nlocal:    0.25 ave 1 max 0 min
Histogram: 3 0 0 0 0 0 0 0 0 1
Nghost:    0.75 ave 1 max 0 min
Histogram: 1 0 0 0 0 0 0 0 0 3
Neighs:    0 ave 0 max 0 min
Histogram: 4 0 0 0 0 0 0 0 0 0

Total # of neighbors = 0
Ave neighs/atom = 0
Neighbor list builds = 0
Dangerous builds = 0
run 10    
Setting up run at Wed Jul 10 11:27:19 2019

Memory usage per processor = 51.8086 Mbytes
    Step    Atoms         KinEng            rke         Volume 
     311        1      1.0639236              0              4 
CFD Coupling established at step 320
     321        1      1.0745318              0              4 
Loop time of 4.22001e-05 on 4 procs for 10 steps with 1 atoms, finish time Wed Jul 10 11:27:19 2019


Pair  time (%) = 3.45707e-06 (8.19209)
Neigh time (%) = 0 (0)
Comm  time (%) = 5.84126e-06 (13.8418)
Outpt time (%) = 5.126e-06 (12.1469)
Other time (%) = 2.77758e-05 (65.8192)

Nlocal:    0.25 ave 1 max 0 min
Histogram: 3 0 0 0 0 0 0 0 0 1
Nghost:    0.75 ave 1 max 0 min
Histogram: 1 0 0 0 0 0 0 0 0 3
Neighs:    0 ave 0 max 0 min
Histogram: 4 0 0 0 0 0 0 0 0 0

Total # of neighbors = 0
Ave neighs/atom = 0
Neighbor list builds = 0
Dangerous builds = 0
run 10    
Setting up run at Wed Jul 10 11:27:19 2019

Memory usage per processor = 51.8086 Mbytes
    Step    Atoms         KinEng            rke         Volume 
     321        1      1.0745318              0              4 
CFD Coupling established at step 330
     331        1      1.0851928              0              4 
Loop time of 3.43323e-05 on 4 procs for 10 steps with 1 atoms, finish time Wed Jul 10 11:27:19 2019


Pair  time (%) = 3.69549e-06 (10.7639)
Neigh time (%) = 0 (0)
Comm  time (%) = 4.41074e-06 (12.8472)
Outpt time (%) = 4.82798e-06 (14.0625)
Other time (%) = 2.13981e-05 (62.3264)

Nlocal:    0.25 ave 1 max 0 min
Histogram: 3 0 0 0 0 0 0 0 0 1
Nghost:    0.75 ave 1 max 0 min
Histogram: 1 0 0 0 0 0 0 0 0 3
Neighs:    0 ave 0 max 0 min
Histogram: 4 0 0 0 0 0 0 0 0 0

Total # of neighbors = 0
Ave neighs/atom = 0
Neighbor list builds = 0
Dangerous builds = 0
run 10    
Setting up run at Wed Jul 10 11:27:19 2019

Memory usage per processor = 51.8086 Mbytes
    Step    Atoms         KinEng            rke         Volume 
     331        1      1.0851928              0              4 
CFD Coupling established at step 340
     341        1      1.0959064              0              4 
Loop time of 3.50475e-05 on 4 procs for 10 steps with 1 atoms, finish time Wed Jul 10 11:27:19 2019


Pair  time (%) = 3.93391e-06 (11.2245)
Neigh time (%) = 0 (0)
Comm  time (%) = 4.94719e-06 (14.1156)
Outpt time (%) = 4.64916e-06 (13.2653)
Other time (%) = 2.15173e-05 (61.3946)

Nlocal:    0.25 ave 1 max 0 min
Histogram: 3 0 0 0 0 0 0 0 0 1
Nghost:    0.75 ave 1 max 0 min
Histogram: 1 0 0 0 0 0 0 0 0 3
Neighs:    0 ave 0 max 0 min
Histogram: 4 0 0 0 0 0 0 0 0 0

Total # of neighbors = 0
Ave neighs/atom = 0
Neighbor list builds = 0
Dangerous builds = 0
run 10    
Setting up run at Wed Jul 10 11:27:19 2019

Memory usage per processor = 51.8086 Mbytes
    Step    Atoms         KinEng            rke         Volume 
     341        1      1.0959064              0              4 
CFD Coupling established at step 350
     351        1      1.1066728              0              4 
Loop time of 3.71933e-05 on 4 procs for 10 steps with 1 atoms, finish time Wed Jul 10 11:27:19 2019


Pair  time (%) = 4.29153e-06 (11.5385)
Neigh time (%) = 0 (0)
Comm  time (%) = 5.48363e-06 (14.7436)
Outpt time (%) = 4.76837e-06 (12.8205)
Other time (%) = 2.26498e-05 (60.8974)

Nlocal:    0.25 ave 1 max 0 min
Histogram: 3 0 0 0 0 0 0 0 0 1
Nghost:    0.75 ave 1 max 0 min
Histogram: 1 0 0 0 0 0 0 0 0 3
Neighs:    0 ave 0 max 0 min
Histogram: 4 0 0 0 0 0 0 0 0 0

Total # of neighbors = 0
Ave neighs/atom = 0
Neighbor list builds = 0
Dangerous builds = 0
run 10    
Setting up run at Wed Jul 10 11:27:19 2019

Memory usage per processor = 51.8086 Mbytes
    Step    Atoms         KinEng            rke         Volume 
     351        1      1.1066728              0              4 
CFD Coupling established at step 360
     361        1      1.1174918              0              4 
Loop time of 3.83854e-05 on 4 procs for 10 steps with 1 atoms, finish time Wed Jul 10 11:27:19 2019


Pair  time (%) = 5.1856e-06 (13.5093)
Neigh time (%) = 0 (0)
Comm  time (%) = 4.94719e-06 (12.8882)
Outpt time (%) = 5.00679e-06 (13.0435)
Other time (%) = 2.32458e-05 (60.559)

Nlocal:    0.25 ave 1 max 0 min
Histogram: 3 0 0 0 0 0 0 0 0 1
Nghost:    0.75 ave 1 max 0 min
Histogram: 1 0 0 0 0 0 0 0 0 3
Neighs:    0 ave 0 max 0 min
Histogram: 4 0 0 0 0 0 0 0 0 0

Total # of neighbors = 0
Ave neighs/atom = 0
Neighbor list builds = 0
Dangerous builds = 0
run 10    
Setting up run at Wed Jul 10 11:27:19 2019

Memory usage per processor = 51.8086 Mbytes
    Step    Atoms         KinEng            rke         Volume 
     361        1      1.1174918              0              4 
CFD Coupling established at step 370
     371        1      1.1283636              0              4 
Loop time of 3.79086e-05 on 4 procs for 10 steps with 1 atoms, finish time Wed Jul 10 11:27:19 2019


Pair  time (%) = 3.45707e-06 (9.1195)
Neigh time (%) = 0 (0)
Comm  time (%) = 7.86781e-06 (20.7547)
Outpt time (%) = 5.48363e-06 (14.4654)
Other time (%) = 2.11e-05 (55.6604)

Nlocal:    0.25 ave 1 max 0 min
Histogram: 3 0 0 0 0 0 0 0 0 1
Nghost:    0.75 ave 1 max 0 min
Histogram: 1 0 0 0 0 0 0 0 0 3
Neighs:    0 ave 0 max 0 min
Histogram: 4 0 0 0 0 0 0 0 0 0

Total # of neighbors = 0
Ave neighs/atom = 0
Neighbor list builds = 0
Dangerous builds = 0
run 10    
Setting up run at Wed Jul 10 11:27:19 2019

Memory usage per processor = 51.8086 Mbytes
    Step    Atoms         KinEng            rke         Volume 
     371        1      1.1283636              0              4 
CFD Coupling established at step 380
     381        1       1.139288              0              4 
Loop time of 4.14848e-05 on 4 procs for 10 steps with 1 atoms, finish time Wed Jul 10 11:27:19 2019


Pair  time (%) = 3.63588e-06 (8.76437)
Neigh time (%) = 0 (0)
Comm  time (%) = 7.56979e-06 (18.2471)
Outpt time (%) = 6.19888e-06 (14.9425)
Other time (%) = 2.40803e-05 (58.046)

Nlocal:    0.25 ave 1 max 0 min
Histogram: 3 0 0 0 0 0 0 0 0 1
Nghost:    0.75 ave 1 max 0 min
Histogram: 1 0 0 0 0 0 0 0 0 3
Neighs:    0 ave 0 max 0 min
Histogram: 4 0 0 0 0 0 0 0 0 0

Total # of neighbors = 0
Ave neighs/atom = 0
Neighbor list builds = 0
Dangerous builds = 0
run 10    
Setting up run at Wed Jul 10 11:27:19 2019

Memory usage per processor = 51.8086 Mbytes
    Step    Atoms         KinEng            rke         Volume 
     381        1       1.139288              0              4 
CFD Coupling established at step 390
     391        1      1.1502651              0              4 
Loop time of 4.29153e-05 on 4 procs for 10 steps with 1 atoms, finish time Wed Jul 10 11:27:19 2019


Pair  time (%) = 5.126e-06 (11.9444)
Neigh time (%) = 0 (0)
Comm  time (%) = 4.29153e-06 (10)
Outpt time (%) = 5.24521e-06 (12.2222)
Other time (%) = 2.82526e-05 (65.8333)

Nlocal:    0.25 ave 1 max 0 min
Histogram: 3 0 0 0 0 0 0 0 0 1
Nghost:    0.75 ave 1 max 0 min
Histogram: 1 0 0 0 0 0 0 0 0 3
Neighs:    0 ave 0 max 0 min
Histogram: 4 0 0 0 0 0 0 0 0 0

Total # of neighbors = 0
Ave neighs/atom = 0
Neighbor list builds = 0
Dangerous builds = 0
run 10    
Setting up run at Wed Jul 10 11:27:20 2019

Memory usage per processor = 51.8086 Mbytes
    Step    Atoms         KinEng            rke         Volume 
     391        1      1.1502651              0              4 
CFD Coupling established at step 400
     401        1      1.1612949              0              4 
Loop time of 0.000108004 on 4 procs for 10 steps with 1 atoms, finish time Wed Jul 10 11:27:20 2019


Pair  time (%) = 2.44379e-06 (2.26269)
Neigh time (%) = 0 (0)
Comm  time (%) = 7.15256e-06 (6.62252)
Outpt time (%) = 1.69873e-05 (15.7285)
Other time (%) = 8.14199e-05 (75.3863)

Nlocal:    0.25 ave 1 max 0 min
Histogram: 3 0 0 0 0 0 0 0 0 1
Nghost:    0.75 ave 1 max 0 min
Histogram: 1 0 0 0 0 0 0 0 0 3
Neighs:    0 ave 0 max 0 min
Histogram: 4 0 0 0 0 0 0 0 0 0

Total # of neighbors = 0
Ave neighs/atom = 0
Neighbor list builds = 0
Dangerous builds = 0
run 10    
Setting up run at Wed Jul 10 11:27:20 2019

Memory usage per processor = 51.8086 Mbytes
    Step    Atoms         KinEng            rke         Volume 
     401        1      1.1612949              0              4 
CFD Coupling established at step 410
     411        1      1.1723774              0              4 
Loop time of 5.91278e-05 on 4 procs for 10 steps with 1 atoms, finish time Wed Jul 10 11:27:20 2019


Pair  time (%) = 5.24521e-06 (8.87097)
Neigh time (%) = 0 (0)
Comm  time (%) = 1.06096e-05 (17.9435)
Outpt time (%) = 7.45058e-06 (12.6008)
Other time (%) = 3.58224e-05 (60.5847)

Nlocal:    0.25 ave 1 max 0 min
Histogram: 3 0 0 0 0 0 0 0 0 1
Nghost:    0.75 ave 1 max 0 min
Histogram: 1 0 0 0 0 0 0 0 0 3
Neighs:    0 ave 0 max 0 min
Histogram: 4 0 0 0 0 0 0 0 0 0

Total # of neighbors = 0
Ave neighs/atom = 0
Neighbor list builds = 0
Dangerous builds = 0
run 10    
Setting up run at Wed Jul 10 11:27:20 2019

Memory usage per processor = 51.8086 Mbytes
    Step    Atoms         KinEng            rke         Volume 
     411        1      1.1723774              0              4 
CFD Coupling established at step 420
     421        1      1.1835145              0              4 
Loop time of 5.29289e-05 on 4 procs for 10 steps with 1 atoms, finish time Wed Jul 10 11:27:20 2019


Pair  time (%) = 2.80142e-06 (5.29279)
Neigh time (%) = 0 (0)
Comm  time (%) = 4.41074e-06 (8.33333)
Outpt time (%) = 1.0252e-05 (19.3694)
Other time (%) = 3.54648e-05 (67.0045)

Nlocal:    0.25 ave 1 max 0 min
Histogram: 3 0 0 0 0 0 0 0 0 1
Nghost:    0.75 ave 1 max 0 min
Histogram: 1 0 0 0 0 0 0 0 0 3
Neighs:    0 ave 0 max 0 min
Histogram: 4 0 0 0 0 0 0 0 0 0

Total # of neighbors = 0
Ave neighs/atom = 0
Neighbor list builds = 0
Dangerous builds = 0
run 10    
Setting up run at Wed Jul 10 11:27:20 2019

Memory usage per processor = 51.8086 Mbytes
    Step    Atoms         KinEng            rke         Volume 
     421        1      1.1835145              0              4 
CFD Coupling established at step 430
     431        1      1.1947027              0              4 
Loop time of 3.40939e-05 on 4 procs for 10 steps with 1 atoms, finish time Wed Jul 10 11:27:20 2019


Pair  time (%) = 2.14577e-06 (6.29371)
Neigh time (%) = 0 (0)
Comm  time (%) = 3.75509e-06 (11.014)
Outpt time (%) = 5.00679e-06 (14.6853)
Other time (%) = 2.31862e-05 (68.007)

Nlocal:    0.25 ave 1 max 0 min
Histogram: 3 0 0 0 0 0 0 0 0 1
Nghost:    0.75 ave 1 max 0 min
Histogram: 1 0 0 0 0 0 0 0 0 3
Neighs:    0 ave 0 max 0 min
Histogram: 4 0 0 0 0 0 0 0 0 0

Total # of neighbors = 0
Ave neighs/atom = 0
Neighbor list builds = 0
Dangerous builds = 0
run 10    
Setting up run at Wed Jul 10 11:27:20 2019

Memory usage per processor = 51.8086 Mbytes
    Step    Atoms         KinEng            rke         Volume 
     431        1      1.1947027              0              4 
CFD Coupling established at step 440
     441        1      1.2059436              0              4 
Loop time of 4.1008e-05 on 4 procs for 10 steps with 1 atoms, finish time Wed Jul 10 11:27:20 2019


Pair  time (%) = 6.73532e-06 (16.4244)
Neigh time (%) = 0 (0)
Comm  time (%) = 3.57628e-06 (8.72093)
Outpt time (%) = 5.24521e-06 (12.7907)
Other time (%) = 2.54512e-05 (62.064)

Nlocal:    0.25 ave 1 max 0 min
Histogram: 3 0 0 0 0 0 0 0 0 1
Nghost:    0.75 ave 1 max 0 min
Histogram: 1 0 0 0 0 0 0 0 0 3
Neighs:    0 ave 0 max 0 min
Histogram: 4 0 0 0 0 0 0 0 0 0

Total # of neighbors = 0
Ave neighs/atom = 0
Neighbor list builds = 0
Dangerous builds = 0
run 10    
Setting up run at Wed Jul 10 11:27:20 2019

Memory usage per processor = 51.8086 Mbytes
    Step    Atoms         KinEng            rke         Volume 
     441        1      1.2059436              0              4 
CFD Coupling established at step 450
     451        1      1.2172372              0              4 
Loop time of 4.1008e-05 on 4 procs for 10 steps with 1 atoms, finish time Wed Jul 10 11:27:20 2019


Pair  time (%) = 2.86102e-06 (6.97674)
Neigh time (%) = 0 (0)
Comm  time (%) = 6.85453e-06 (16.7151)
Outpt time (%) = 5.30481e-06 (12.936)
Other time (%) = 2.59876e-05 (63.3721)

Nlocal:    0.25 ave 1 max 0 min
Histogram: 3 0 0 0 0 0 0 0 0 1
Nghost:    0.75 ave 1 max 0 min
Histogram: 1 0 0 0 0 0 0 0 0 3
Neighs:    0 ave 0 max 0 min
Histogram: 4 0 0 0 0 0 0 0 0 0

Total # of neighbors = 0
Ave neighs/atom = 0
Neighbor list builds = 0
Dangerous builds = 0
run 10    
Setting up run at Wed Jul 10 11:27:20 2019

Memory usage per processor = 51.8086 Mbytes
    Step    Atoms         KinEng            rke         Volume 
     451        1      1.2172372              0              4 
CFD Coupling established at step 460
     461        1      1.2285833              0              4 
Loop time of 3.69549e-05 on 4 procs for 10 steps with 1 atoms, finish time Wed Jul 10 11:27:20 2019


Pair  time (%) = 4.52995e-06 (12.2581)
Neigh time (%) = 0 (0)
Comm  time (%) = 4.76837e-06 (12.9032)
Outpt time (%) = 4.88758e-06 (13.2258)
Other time (%) = 2.2769e-05 (61.6129)

Nlocal:    0.25 ave 1 max 0 min
Histogram: 3 0 0 0 0 0 0 0 0 1
Nghost:    0.75 ave 1 max 0 min
Histogram: 1 0 0 0 0 0 0 0 0 3
Neighs:    0 ave 0 max 0 min
Histogram: 4 0 0 0 0 0 0 0 0 0

Total # of neighbors = 0
Ave neighs/atom = 0
Neighbor list builds = 0
Dangerous builds = 0
run 10    
Setting up run at Wed Jul 10 11:27:20 2019

Memory usage per processor = 51.8086 Mbytes
    Step    Atoms         KinEng            rke         Volume 
     461        1      1.2285833              0              4 
CFD Coupling established at step 470
     471        1      1.2399821              0              4 
Loop time of 3.95775e-05 on 4 procs for 10 steps with 1 atoms, finish time Wed Jul 10 11:27:20 2019


Pair  time (%) = 3.39746e-06 (8.58434)
Neigh time (%) = 0 (0)
Comm  time (%) = 8.46386e-06 (21.3855)
Outpt time (%) = 5.24521e-06 (13.253)
Other time (%) = 2.2471e-05 (56.7771)

Nlocal:    0.25 ave 1 max 0 min
Histogram: 3 0 0 0 0 0 0 0 0 1
Nghost:    0.75 ave 1 max 0 min
Histogram: 1 0 0 0 0 0 0 0 0 3
Neighs:    0 ave 0 max 0 min
Histogram: 4 0 0 0 0 0 0 0 0 0

Total # of neighbors = 0
Ave neighs/atom = 0
Neighbor list builds = 0
Dangerous builds = 0
run 10    
Setting up run at Wed Jul 10 11:27:20 2019

Memory usage per processor = 51.8086 Mbytes
    Step    Atoms         KinEng            rke         Volume 
     471        1      1.2399821              0              4 
CFD Coupling established at step 480
     481        1      1.2514336              0              4 
Loop time of 4.76837e-05 on 4 procs for 10 steps with 1 atoms, finish time Wed Jul 10 11:27:20 2019


Pair  time (%) = 4.76837e-06 (10)
Neigh time (%) = 0 (0)
Comm  time (%) = 5.54323e-06 (11.625)
Outpt time (%) = 6.25849e-06 (13.125)
Other time (%) = 3.11136e-05 (65.25)

Nlocal:    0.25 ave 1 max 0 min
Histogram: 3 0 0 0 0 0 0 0 0 1
Nghost:    0.75 ave 1 max 0 min
Histogram: 1 0 0 0 0 0 0 0 0 3
Neighs:    0 ave 0 max 0 min
Histogram: 4 0 0 0 0 0 0 0 0 0

Total # of neighbors = 0
Ave neighs/atom = 0
Neighbor list builds = 0
Dangerous builds = 0
run 10    
Setting up run at Wed Jul 10 11:27:20 2019

Memory usage per processor = 51.8086 Mbytes
    Step    Atoms         KinEng            rke         Volume 
     481        1      1.2514336              0              4 
CFD Coupling established at step 490
     491        1      1.2629372              0              4 
Loop time of 4.02927e-05 on 4 procs for 10 steps with 1 atoms, finish time Wed Jul 10 11:27:20 2019


Pair  time (%) = 3.8147e-06 (9.46746)
Neigh time (%) = 0 (0)
Comm  time (%) = 8.16584e-06 (20.2663)
Outpt time (%) = 4.82798e-06 (11.9822)
Other time (%) = 2.34842e-05 (58.284)

Nlocal:    0.25 ave 1 max 0 min
Histogram: 3 0 0 0 0 0 0 0 0 1
Nghost:    0.75 ave 1 max 0 min
Histogram: 1 0 0 0 0 0 0 0 0 3
Neighs:    0 ave 0 max 0 min
Histogram: 4 0 0 0 0 0 0 0 0 0

Total # of neighbors = 0
Ave neighs/atom = 0
Neighbor list builds = 0
Dangerous builds = 0
run 10    
Setting up run at Wed Jul 10 11:27:20 2019

Memory usage per processor = 51.8086 Mbytes
    Step    Atoms         KinEng            rke         Volume 
     491        1      1.2629372              0              4 
CFD Coupling established at step 500
     501        1      1.2744935              0              4 
Loop time of 9.44138e-05 on 4 procs for 10 steps with 1 atoms, finish time Wed Jul 10 11:27:20 2019


Pair  time (%) = 4.88758e-06 (5.17677)
Neigh time (%) = 0 (0)
Comm  time (%) = 5.78165e-06 (6.12374)
Outpt time (%) = 1.65105e-05 (17.4874)
Other time (%) = 6.7234e-05 (71.2121)

Nlocal:    0.25 ave 1 max 0 min
Histogram: 3 0 0 0 0 0 0 0 0 1
Nghost:    0.75 ave 1 max 0 min
Histogram: 1 0 0 0 0 0 0 0 0 3
Neighs:    0 ave 0 max 0 min
Histogram: 4 0 0 0 0 0 0 0 0 0

Total # of neighbors = 0
Ave neighs/atom = 0
Neighbor list builds = 0
Dangerous builds = 0
run 10    
Setting up run at Wed Jul 10 11:27:20 2019

Memory usage per processor = 51.8086 Mbytes
    Step    Atoms         KinEng            rke         Volume 
     501        1      1.2744935              0              4 
CFD Coupling established at step 510
     511        1      1.2861024              0              4 
Loop time of 3.60012e-05 on 4 procs for 10 steps with 1 atoms, finish time Wed Jul 10 11:27:20 2019


Pair  time (%) = 2.5034e-06 (6.95364)
Neigh time (%) = 0 (0)
Comm  time (%) = 6.97374e-06 (19.3709)
Outpt time (%) = 5.06639e-06 (14.0728)
Other time (%) = 2.14577e-05 (59.6026)

Nlocal:    0.25 ave 1 max 0 min
Histogram: 3 0 0 0 0 0 0 0 0 1
Nghost:    0.75 ave 1 max 0 min
Histogram: 1 0 0 0 0 0 0 0 0 3
Neighs:    0 ave 0 max 0 min
Histogram: 4 0 0 0 0 0 0 0 0 0

Total # of neighbors = 0
Ave neighs/atom = 0
Neighbor list builds = 0
Dangerous builds = 0
run 10    
Setting up run at Wed Jul 10 11:27:20 2019

Memory usage per processor = 51.8086 Mbytes
    Step    Atoms         KinEng            rke         Volume 
     511        1      1.2861024              0              4 
CFD Coupling established at step 520
     521        1      1.2977639              0              4 
Loop time of 3.48091e-05 on 4 procs for 10 steps with 1 atoms, finish time Wed Jul 10 11:27:20 2019


Pair  time (%) = 3.33786e-06 (9.58904)
Neigh time (%) = 0 (0)
Comm  time (%) = 2.38419e-06 (6.84932)
Outpt time (%) = 4.70877e-06 (13.5274)
Other time (%) = 2.43783e-05 (70.0342)

Nlocal:    0.25 ave 1 max 0 min
Histogram: 3 0 0 0 0 0 0 0 0 1
Nghost:    0.75 ave 1 max 0 min
Histogram: 1 0 0 0 0 0 0 0 0 3
Neighs:    0 ave 0 max 0 min
Histogram: 4 0 0 0 0 0 0 0 0 0

Total # of neighbors = 0
Ave neighs/atom = 0
Neighbor list builds = 0
Dangerous builds = 0
run 10    
Setting up run at Wed Jul 10 11:27:20 2019

Memory usage per processor = 51.8086 Mbytes
    Step    Atoms         KinEng            rke         Volume 
     521        1      1.2977639              0              4 
CFD Coupling established at step 530
     531        1      1.3094781              0              4 
Loop time of 3.93391e-05 on 4 procs for 10 steps with 1 atoms, finish time Wed Jul 10 11:27:20 2019


Pair  time (%) = 3.8743e-06 (9.84848)
Neigh time (%) = 0 (0)
Comm  time (%) = 7.98702e-06 (20.303)
Outpt time (%) = 5.78165e-06 (14.697)
Other time (%) = 2.16961e-05 (55.1515)

Nlocal:    0.25 ave 1 max 0 min
Histogram: 3 0 0 0 0 0 0 0 0 1
Nghost:    0.75 ave 1 max 0 min
Histogram: 1 0 0 0 0 0 0 0 0 3
Neighs:    0 ave 0 max 0 min
Histogram: 4 0 0 0 0 0 0 0 0 0

Total # of neighbors = 0
Ave neighs/atom = 0
Neighbor list builds = 0
Dangerous builds = 0
run 10    
Setting up run at Wed Jul 10 11:27:20 2019

Memory usage per processor = 51.8086 Mbytes
    Step    Atoms         KinEng            rke         Volume 
     531        1      1.3094781              0              4 
CFD Coupling established at step 540
     541        1      1.3212449              0              4 
Loop time of 3.31402e-05 on 4 procs for 10 steps with 1 atoms, finish time Wed Jul 10 11:27:20 2019


Pair  time (%) = 2.563e-06 (7.73381)
Neigh time (%) = 0 (0)
Comm  time (%) = 7.33137e-06 (22.1223)
Outpt time (%) = 3.93391e-06 (11.8705)
Other time (%) = 1.93119e-05 (58.2734)

Nlocal:    0.25 ave 1 max 0 min
Histogram: 3 0 0 0 0 0 0 0 0 1
Nghost:    0.75 ave 1 max 0 min
Histogram: 1 0 0 0 0 0 0 0 0 3
Neighs:    0 ave 0 max 0 min
Histogram: 4 0 0 0 0 0 0 0 0 0

Total # of neighbors = 0
Ave neighs/atom = 0
Neighbor list builds = 0
Dangerous builds = 0
run 10    
Setting up run at Wed Jul 10 11:27:20 2019

Memory usage per processor = 51.8086 Mbytes
    Step    Atoms         KinEng            rke         Volume 
     541        1      1.3212449              0              4 
CFD Coupling established at step 550
     551        1      1.3330643              0              4 
Loop time of 3.88622e-05 on 4 procs for 10 steps with 1 atoms, finish time Wed Jul 10 11:27:20 2019


Pair  time (%) = 5.72205e-06 (14.7239)
Neigh time (%) = 0 (0)
Comm  time (%) = 4.35114e-06 (11.1963)
Outpt time (%) = 5.00679e-06 (12.8834)
Other time (%) = 2.37823e-05 (61.1963)

Nlocal:    0.25 ave 1 max 0 min
Histogram: 3 0 0 0 0 0 0 0 0 1
Nghost:    0.75 ave 1 max 0 min
Histogram: 1 0 0 0 0 0 0 0 0 3
Neighs:    0 ave 0 max 0 min
Histogram: 4 0 0 0 0 0 0 0 0 0

Total # of neighbors = 0
Ave neighs/atom = 0
Neighbor list builds = 0
Dangerous builds = 0
run 10    
Setting up run at Wed Jul 10 11:27:20 2019

Memory usage per processor = 51.8086 Mbytes
    Step    Atoms         KinEng            rke         Volume 
     551        1      1.3330643              0              4 
CFD Coupling established at step 560
     561        1      1.3449365              0              4 
Loop time of 4.55379e-05 on 4 procs for 10 steps with 1 atoms, finish time Wed Jul 10 11:27:20 2019


Pair  time (%) = 3.99351e-06 (8.76963)
Neigh time (%) = 0 (0)
Comm  time (%) = 7.21216e-06 (15.8377)
Outpt time (%) = 4.82798e-06 (10.6021)
Other time (%) = 2.95043e-05 (64.7906)

Nlocal:    0.25 ave 1 max 0 min
Histogram: 3 0 0 0 0 0 0 0 0 1
Nghost:    0.75 ave 1 max 0 min
Histogram: 1 0 0 0 0 0 0 0 0 3
Neighs:    0 ave 0 max 0 min
Histogram: 4 0 0 0 0 0 0 0 0 0

Total # of neighbors = 0
Ave neighs/atom = 0
Neighbor list builds = 0
Dangerous builds = 0
run 10    
Setting up run at Wed Jul 10 11:27:20 2019

Memory usage per processor = 51.8086 Mbytes
    Step    Atoms         KinEng            rke         Volume 
     561        1      1.3449365              0              4 
CFD Coupling established at step 570
     571        1      1.3568613              0              4 
Loop time of 3.76701e-05 on 4 procs for 10 steps with 1 atoms, finish time Wed Jul 10 11:27:20 2019


Pair  time (%) = 2.26498e-06 (6.01266)
Neigh time (%) = 0 (0)
Comm  time (%) = 7.62939e-06 (20.2532)
Outpt time (%) = 5.24521e-06 (13.9241)
Other time (%) = 2.25306e-05 (59.8101)

Nlocal:    0.25 ave 1 max 0 min
Histogram: 3 0 0 0 0 0 0 0 0 1
Nghost:    0.75 ave 1 max 0 min
Histogram: 1 0 0 0 0 0 0 0 0 3
Neighs:    0 ave 0 max 0 min
Histogram: 4 0 0 0 0 0 0 0 0 0

Total # of neighbors = 0
Ave neighs/atom = 0
Neighbor list builds = 0
Dangerous builds = 0
run 10    
Setting up run at Wed Jul 10 11:27:20 2019

Memory usage per processor = 51.8086 Mbytes
    Step    Atoms         KinEng            rke         Volume 
     571        1      1.3568613              0              4 
CFD Coupling established at step 580
     581        1      1.3688387              0              4 
Loop time of 3.41535e-05 on 4 procs for 10 steps with 1 atoms, finish time Wed Jul 10 11:27:20 2019


Pair  time (%) = 3.45707e-06 (10.1222)
Neigh time (%) = 0 (0)
Comm  time (%) = 6.4373e-06 (18.8482)
Outpt time (%) = 5.00679e-06 (14.6597)
Other time (%) = 1.92523e-05 (56.37)

Nlocal:    0.25 ave 1 max 0 min
Histogram: 3 0 0 0 0 0 0 0 0 1
Nghost:    0.75 ave 1 max 0 min
Histogram: 1 0 0 0 0 0 0 0 0 3
Neighs:    0 ave 0 max 0 min
Histogram: 4 0 0 0 0 0 0 0 0 0

Total # of neighbors = 0
Ave neighs/atom = 0
Neighbor list builds = 0
Dangerous builds = 0
run 10    
Setting up run at Wed Jul 10 11:27:20 2019

Memory usage per processor = 51.8086 Mbytes
    Step    Atoms         KinEng            rke         Volume 
     581        1      1.3688387              0              4 
CFD Coupling established at step 590
     591        1      1.3808688              0              4 
Loop time of 3.79086e-05 on 4 procs for 10 steps with 1 atoms, finish time Wed Jul 10 11:27:20 2019


Pair  time (%) = 2.20537e-06 (5.81761)
Neigh time (%) = 0 (0)
Comm  time (%) = 8.64267e-06 (22.7987)
Outpt time (%) = 4.76837e-06 (12.5786)
Other time (%) = 2.22921e-05 (58.805)

Nlocal:    0.25 ave 1 max 0 min
Histogram: 3 0 0 0 0 0 0 0 0 1
Nghost:    0.75 ave 1 max 0 min
Histogram: 1 0 0 0 0 0 0 0 0 3
Neighs:    0 ave 0 max 0 min
Histogram: 4 0 0 0 0 0 0 0 0 0

Total # of neighbors = 0
Ave neighs/atom = 0
Neighbor list builds = 0
Dangerous builds = 0
run 10    
Setting up run at Wed Jul 10 11:27:20 2019

Memory usage per processor = 51.8086 Mbytes
    Step    Atoms         KinEng            rke         Volume 
     591        1      1.3808688              0              4 
CFD Coupling established at step 600
     601        1      1.3929515              0              4 
Loop time of 0.000114918 on 4 procs for 10 steps with 1 atoms, finish time Wed Jul 10 11:27:20 2019


Pair  time (%) = 4.41074e-06 (3.83817)
Neigh time (%) = 0 (0)
Comm  time (%) = 5.36442e-06 (4.66805)
Outpt time (%) = 3.12328e-05 (27.1784)
Other time (%) = 7.39098e-05 (64.3154)

Nlocal:    0.25 ave 1 max 0 min
Histogram: 3 0 0 0 0 0 0 0 0 1
Nghost:    0.75 ave 1 max 0 min
Histogram: 1 0 0 0 0 0 0 0 0 3
Neighs:    0 ave 0 max 0 min
Histogram: 4 0 0 0 0 0 0 0 0 0

Total # of neighbors = 0
Ave neighs/atom = 0
Neighbor list builds = 0
Dangerous builds = 0
run 10    
Setting up run at Wed Jul 10 11:27:20 2019

Memory usage per processor = 52.9612 Mbytes
    Step    Atoms         KinEng            rke         Volume 
     601        1      1.3929515              0              4 
CFD Coupling established at step 610
     611        1      1.4050869              0              4 
Loop time of 3.6478e-05 on 4 procs for 10 steps with 1 atoms, finish time Wed Jul 10 11:27:20 2019


Pair  time (%) = 3.09944e-06 (8.49673)
Neigh time (%) = 0 (0)
Comm  time (%) = 6.19888e-06 (16.9935)
Outpt time (%) = 4.52995e-06 (12.4183)
Other time (%) = 2.26498e-05 (62.0915)

Nlocal:    0.25 ave 1 max 0 min
Histogram: 3 0 0 0 0 0 0 0 0 1
Nghost:    0.75 ave 1 max 0 min
Histogram: 1 0 0 0 0 0 0 0 0 3
Neighs:    0 ave 0 max 0 min
Histogram: 4 0 0 0 0 0 0 0 0 0

Total # of neighbors = 0
Ave neighs/atom = 0
Neighbor list builds = 0
Dangerous builds = 0
run 10    
Setting up run at Wed Jul 10 11:27:20 2019

Memory usage per processor = 52.9612 Mbytes
    Step    Atoms         KinEng            rke         Volume 
     611        1      1.4050869              0              4 
CFD Coupling established at step 620
     621        1       1.417275              0              4 
Loop time of 4.41074e-05 on 4 procs for 10 steps with 1 atoms, finish time Wed Jul 10 11:27:20 2019


Pair  time (%) = 3.75509e-06 (8.51351)
Neigh time (%) = 0 (0)
Comm  time (%) = 8.52346e-06 (19.3243)
Outpt time (%) = 5.84126e-06 (13.2432)
Other time (%) = 2.59876e-05 (58.9189)

Nlocal:    0.25 ave 1 max 0 min
Histogram: 3 0 0 0 0 0 0 0 0 1
Nghost:    0.75 ave 1 max 0 min
Histogram: 1 0 0 0 0 0 0 0 0 3
Neighs:    0 ave 0 max 0 min
Histogram: 4 0 0 0 0 0 0 0 0 0

Total # of neighbors = 0
Ave neighs/atom = 0
Neighbor list builds = 0
Dangerous builds = 0
run 10    
Setting up run at Wed Jul 10 11:27:20 2019

Memory usage per processor = 52.9612 Mbytes
    Step    Atoms         KinEng            rke         Volume 
     621        1       1.417275              0              4 
CFD Coupling established at step 630
     631        1      1.4295158              0              4 
Loop time of 4.31538e-05 on 4 procs for 10 steps with 1 atoms, finish time Wed Jul 10 11:27:20 2019


Pair  time (%) = 3.93391e-06 (9.11602)
Neigh time (%) = 0 (0)
Comm  time (%) = 6.3777e-06 (14.779)
Outpt time (%) = 5.30481e-06 (12.2928)
Other time (%) = 2.75373e-05 (63.8122)

Nlocal:    0.25 ave 1 max 0 min
Histogram: 3 0 0 0 0 0 0 0 0 1
Nghost:    0.75 ave 1 max 0 min
Histogram: 1 0 0 0 0 0 0 0 0 3
Neighs:    0 ave 0 max 0 min
Histogram: 4 0 0 0 0 0 0 0 0 0

Total # of neighbors = 0
Ave neighs/atom = 0
Neighbor list builds = 0
Dangerous builds = 0
run 10    
Setting up run at Wed Jul 10 11:27:20 2019

Memory usage per processor = 52.9612 Mbytes
    Step    Atoms         KinEng            rke         Volume 
     631        1      1.4295158              0              4 
CFD Coupling established at step 640
     641        1      1.4418092              0              4 
Loop time of 3.8147e-05 on 4 procs for 10 steps with 1 atoms, finish time Wed Jul 10 11:27:20 2019


Pair  time (%) = 3.69549e-06 (9.6875)
Neigh time (%) = 0 (0)
Comm  time (%) = 6.79493e-06 (17.8125)
Outpt time (%) = 5.78165e-06 (15.1562)
Other time (%) = 2.18749e-05 (57.3438)

Nlocal:    0.25 ave 1 max 0 min
Histogram: 3 0 0 0 0 0 0 0 0 1
Nghost:    0.75 ave 1 max 0 min
Histogram: 1 0 0 0 0 0 0 0 0 3
Neighs:    0 ave 0 max 0 min
Histogram: 4 0 0 0 0 0 0 0 0 0

Total # of neighbors = 0
Ave neighs/atom = 0
Neighbor list builds = 0
Dangerous builds = 0
run 10    
Setting up run at Wed Jul 10 11:27:20 2019

Memory usage per processor = 52.9612 Mbytes
    Step    Atoms         KinEng            rke         Volume 
     641        1      1.4418092              0              4 
CFD Coupling established at step 650
     651        1      1.4541552              0              4 
Loop time of 3.76701e-05 on 4 procs for 10 steps with 1 atoms, finish time Wed Jul 10 11:27:20 2019


Pair  time (%) = 3.33786e-06 (8.86076)
Neigh time (%) = 0 (0)
Comm  time (%) = 7.62939e-06 (20.2532)
Outpt time (%) = 4.82798e-06 (12.8165)
Other time (%) = 2.18749e-05 (58.0696)

Nlocal:    0.25 ave 1 max 0 min
Histogram: 3 0 0 0 0 0 0 0 0 1
Nghost:    0.75 ave 1 max 0 min
Histogram: 1 0 0 0 0 0 0 0 0 3
Neighs:    0 ave 0 max 0 min
Histogram: 4 0 0 0 0 0 0 0 0 0

Total # of neighbors = 0
Ave neighs/atom = 0
Neighbor list builds = 0
Dangerous builds = 0
run 10    
Setting up run at Wed Jul 10 11:27:20 2019

Memory usage per processor = 52.9612 Mbytes
    Step    Atoms         KinEng            rke         Volume 
     651        1      1.4541552              0              4 
CFD Coupling established at step 660
     661        1       1.466554              0              4 
Loop time of 3.55244e-05 on 4 procs for 10 steps with 1 atoms, finish time Wed Jul 10 11:27:20 2019


Pair  time (%) = 1.72853e-06 (4.86577)
Neigh time (%) = 0 (0)
Comm  time (%) = 6.67572e-06 (18.7919)
Outpt time (%) = 5.78165e-06 (16.2752)
Other time (%) = 2.13385e-05 (60.0671)

Nlocal:    0.25 ave 1 max 0 min
Histogram: 3 0 0 0 0 0 0 0 0 1
Nghost:    0.75 ave 1 max 0 min
Histogram: 1 0 0 0 0 0 0 0 0 3
Neighs:    0 ave 0 max 0 min
Histogram: 4 0 0 0 0 0 0 0 0 0

Total # of neighbors = 0
Ave neighs/atom = 0
Neighbor list builds = 0
Dangerous builds = 0
run 10    
Setting up run at Wed Jul 10 11:27:20 2019

Memory usage per processor = 52.9612 Mbytes
    Step    Atoms         KinEng            rke         Volume 
     661        1       1.466554              0              4 
CFD Coupling established at step 670
     671        1      1.4790053              0              4 
Loop time of 3.60012e-05 on 4 procs for 10 steps with 1 atoms, finish time Wed Jul 10 11:27:20 2019


Pair  time (%) = 4.64916e-06 (12.9139)
Neigh time (%) = 0 (0)
Comm  time (%) = 2.74181e-06 (7.61589)
Outpt time (%) = 5.24521e-06 (14.5695)
Other time (%) = 2.3365e-05 (64.9007)

Nlocal:    0.25 ave 1 max 0 min
Histogram: 3 0 0 0 0 0 0 0 0 1
Nghost:    0.75 ave 1 max 0 min
Histogram: 1 0 0 0 0 0 0 0 0 3
Neighs:    0 ave 0 max 0 min
Histogram: 4 0 0 0 0 0 0 0 0 0

Total # of neighbors = 0
Ave neighs/atom = 0
Neighbor list builds = 0
Dangerous builds = 0
run 10    
Setting up run at Wed Jul 10 11:27:20 2019

Memory usage per processor = 52.9612 Mbytes
    Step    Atoms         KinEng            rke         Volume 
     671        1      1.4790053              0              4 
CFD Coupling established at step 680
     681        1      1.4915092              0              4 
Loop time of 3.98159e-05 on 4 procs for 10 steps with 1 atoms, finish time Wed Jul 10 11:27:20 2019


Pair  time (%) = 4.58956e-06 (11.5269)
Neigh time (%) = 0 (0)
Comm  time (%) = 5.30481e-06 (13.3234)
Outpt time (%) = 5.06639e-06 (12.7246)
Other time (%) = 2.48551e-05 (62.4251)

Nlocal:    0.25 ave 1 max 0 min
Histogram: 3 0 0 0 0 0 0 0 0 1
Nghost:    0.75 ave 1 max 0 min
Histogram: 1 0 0 0 0 0 0 0 0 3
Neighs:    0 ave 0 max 0 min
Histogram: 4 0 0 0 0 0 0 0 0 0

Total # of neighbors = 0
Ave neighs/atom = 0
Neighbor list builds = 0
Dangerous builds = 0
run 10    
Setting up run at Wed Jul 10 11:27:20 2019

Memory usage per processor = 52.9612 Mbytes
    Step    Atoms         KinEng            rke         Volume 
     681        1      1.4915092              0              4 
CFD Coupling established at step 690
     691        1      1.5040657              0              4 
Loop time of 4.25577e-05 on 4 procs for 10 steps with 1 atoms, finish time Wed Jul 10 11:27:20 2019


Pair  time (%) = 3.75509e-06 (8.82353)
Neigh time (%) = 0 (0)
Comm  time (%) = 8.58307e-06 (20.1681)
Outpt time (%) = 5.06639e-06 (11.9048)
Other time (%) = 2.51532e-05 (59.1036)

Nlocal:    0.25 ave 1 max 0 min
Histogram: 3 0 0 0 0 0 0 0 0 1
Nghost:    0.75 ave 1 max 0 min
Histogram: 1 0 0 0 0 0 0 0 0 3
Neighs:    0 ave 0 max 0 min
Histogram: 4 0 0 0 0 0 0 0 0 0

Total # of neighbors = 0
Ave neighs/atom = 0
Neighbor list builds = 0
Dangerous builds = 0
run 10    
Setting up run at Wed Jul 10 11:27:20 2019

Memory usage per processor = 52.9612 Mbytes
    Step    Atoms         KinEng            rke         Volume 
     691        1      1.5040657              0              4 
CFD Coupling established at step 700
     701        1      1.5166749              0              4 
Loop time of 0.000106812 on 4 procs for 10 steps with 1 atoms, finish time Wed Jul 10 11:27:20 2019


Pair  time (%) = 2.44379e-06 (2.28795)
Neigh time (%) = 0 (0)
Comm  time (%) = 8.82149e-06 (8.25893)
Outpt time (%) = 2.76566e-05 (25.8929)
Other time (%) = 6.78897e-05 (63.5603)

Nlocal:    0.25 ave 1 max 0 min
Histogram: 3 0 0 0 0 0 0 0 0 1
Nghost:    0.75 ave 1 max 0 min
Histogram: 1 0 0 0 0 0 0 0 0 3
Neighs:    0 ave 0 max 0 min
Histogram: 4 0 0 0 0 0 0 0 0 0

Total # of neighbors = 0
Ave neighs/atom = 0
Neighbor list builds = 0
Dangerous builds = 0
run 10    
Setting up run at Wed Jul 10 11:27:20 2019

Memory usage per processor = 52.9612 Mbytes
    Step    Atoms         KinEng            rke         Volume 
     701        1      1.5166749              0              4 
CFD Coupling established at step 710
     711        1      1.5293367              0              4 
Loop time of 3.69549e-05 on 4 procs for 10 steps with 1 atoms, finish time Wed Jul 10 11:27:20 2019


Pair  time (%) = 2.74181e-06 (7.41935)
Neigh time (%) = 0 (0)
Comm  time (%) = 5.48363e-06 (14.8387)
Outpt time (%) = 5.00679e-06 (13.5484)
Other time (%) = 2.37226e-05 (64.1935)

Nlocal:    0.25 ave 1 max 0 min
Histogram: 3 0 0 0 0 0 0 0 0 1
Nghost:    0.75 ave 1 max 0 min
Histogram: 1 0 0 0 0 0 0 0 0 3
Neighs:    0 ave 0 max 0 min
Histogram: 4 0 0 0 0 0 0 0 0 0

Total # of neighbors = 0
Ave neighs/atom = 0
Neighbor list builds = 0
Dangerous builds = 0
run 10    
Setting up run at Wed Jul 10 11:27:20 2019

Memory usage per processor = 52.9612 Mbytes
    Step    Atoms         KinEng            rke         Volume 
     711        1      1.5293367              0              4 
CFD Coupling established at step 720
     721        1      1.5420512              0              4 
Loop time of 3.69549e-05 on 4 procs for 10 steps with 1 atoms, finish time Wed Jul 10 11:27:21 2019


Pair  time (%) = 4.17233e-06 (11.2903)
Neigh time (%) = 0 (0)
Comm  time (%) = 6.67572e-06 (18.0645)
Outpt time (%) = 4.29153e-06 (11.6129)
Other time (%) = 2.18153e-05 (59.0323)

Nlocal:    0.25 ave 1 max 0 min
Histogram: 3 0 0 0 0 0 0 0 0 1
Nghost:    0.75 ave 1 max 0 min
Histogram: 1 0 0 0 0 0 0 0 0 3
Neighs:    0 ave 0 max 0 min
Histogram: 4 0 0 0 0 0 0 0 0 0

Total # of neighbors = 0
Ave neighs/atom = 0
Neighbor list builds = 0
Dangerous builds = 0
run 10    
Setting up run at Wed Jul 10 11:27:21 2019

Memory usage per processor = 52.9612 Mbytes
    Step    Atoms         KinEng            rke         Volume 
     721        1      1.5420512              0              4 
CFD Coupling established at step 730
     731        1      1.5548177              0              4 
Loop time of 4.91142e-05 on 4 procs for 10 steps with 1 atoms, finish time Wed Jul 10 11:27:21 2019


Pair  time (%) = 4.11272e-06 (8.37379)
Neigh time (%) = 0 (0)
Comm  time (%) = 9.05991e-06 (18.4466)
Outpt time (%) = 5.78165e-06 (11.7718)
Other time (%) = 3.016e-05 (61.4078)

Nlocal:    0.25 ave 1 max 0 min
Histogram: 3 0 0 0 0 0 0 0 0 1
Nghost:    0.75 ave 1 max 0 min
Histogram: 1 0 0 0 0 0 0 0 0 3
Neighs:    0 ave 0 max 0 min
Histogram: 4 0 0 0 0 0 0 0 0 0

Total # of neighbors = 0
Ave neighs/atom = 0
Neighbor list builds = 0
Dangerous builds = 0
run 10    
Setting up run at Wed Jul 10 11:27:21 2019

Memory usage per processor = 52.9612 Mbytes
    Step    Atoms         KinEng            rke         Volume 
     731        1      1.5548177              0              4 
CFD Coupling established at step 740
     741        1      1.5676368              0              4 
Loop time of 3.62396e-05 on 4 procs for 10 steps with 1 atoms, finish time Wed Jul 10 11:27:21 2019


Pair  time (%) = 3.69549e-06 (10.1974)
Neigh time (%) = 0 (0)
Comm  time (%) = 5.00679e-06 (13.8158)
Outpt time (%) = 5.06639e-06 (13.9803)
Other time (%) = 2.2471e-05 (62.0066)

Nlocal:    0.25 ave 1 max 0 min
Histogram: 3 0 0 0 0 0 0 0 0 1
Nghost:    0.75 ave 1 max 0 min
Histogram: 1 0 0 0 0 0 0 0 0 3
Neighs:    0 ave 0 max 0 min
Histogram: 4 0 0 0 0 0 0 0 0 0

Total # of neighbors = 0
Ave neighs/atom = 0
Neighbor list builds = 0
Dangerous builds = 0
run 10    
Setting up run at Wed Jul 10 11:27:21 2019

Memory usage per processor = 52.9612 Mbytes
    Step    Atoms         KinEng            rke         Volume 
     741        1      1.5676368              0              4 
CFD Coupling established at step 750
     751        1      1.5805098              0              4 
Loop time of 3.40939e-05 on 4 procs for 10 steps with 1 atoms, finish time Wed Jul 10 11:27:21 2019


Pair  time (%) = 2.5034e-06 (7.34266)
Neigh time (%) = 0 (0)
Comm  time (%) = 7.03335e-06 (20.6294)
Outpt time (%) = 4.47035e-06 (13.1119)
Other time (%) = 2.00868e-05 (58.9161)

Nlocal:    0.25 ave 1 max 0 min
Histogram: 3 0 0 0 0 0 0 0 0 1
Nghost:    0.75 ave 1 max 0 min
Histogram: 1 0 0 0 0 0 0 0 0 3
Neighs:    0 ave 0 max 0 min
Histogram: 4 0 0 0 0 0 0 0 0 0

Total # of neighbors = 0
Ave neighs/atom = 0
Neighbor list builds = 0
Dangerous builds = 0
run 10    
Setting up run at Wed Jul 10 11:27:21 2019

Memory usage per processor = 52.9612 Mbytes
    Step    Atoms         KinEng            rke         Volume 
     751        1      1.5805098              0              4 
CFD Coupling established at step 760
     761        1      1.5934335              0              4 
Loop time of 3.72529e-05 on 4 procs for 10 steps with 1 atoms, finish time Wed Jul 10 11:27:21 2019


Pair  time (%) = 3.15905e-06 (8.48)
Neigh time (%) = 0 (0)
Comm  time (%) = 6.13928e-06 (16.48)
Outpt time (%) = 5.48363e-06 (14.72)
Other time (%) = 2.2471e-05 (60.32)

Nlocal:    0.25 ave 1 max 0 min
Histogram: 3 0 0 0 0 0 0 0 0 1
Nghost:    0.75 ave 1 max 0 min
Histogram: 1 0 0 0 0 0 0 0 0 3
Neighs:    0 ave 0 max 0 min
Histogram: 4 0 0 0 0 0 0 0 0 0

Total # of neighbors = 0
Ave neighs/atom = 0
Neighbor list builds = 0
Dangerous builds = 0
run 10    
Setting up run at Wed Jul 10 11:27:21 2019

Memory usage per processor = 52.9612 Mbytes
    Step    Atoms         KinEng            rke         Volume 
     761        1      1.5934335              0              4 
CFD Coupling established at step 770
     771        1      1.6064103              0              4 
Loop time of 4.79221e-05 on 4 procs for 10 steps with 1 atoms, finish time Wed Jul 10 11:27:21 2019


Pair  time (%) = 4.05312e-06 (8.45771)
Neigh time (%) = 0 (0)
Comm  time (%) = 7.39098e-06 (15.4229)
Outpt time (%) = 6.79493e-06 (14.1791)
Other time (%) = 2.96831e-05 (61.9403)

Nlocal:    0.25 ave 1 max 0 min
Histogram: 3 0 0 0 0 0 0 0 0 1
Nghost:    0.75 ave 1 max 0 min
Histogram: 1 0 0 0 0 0 0 0 0 3
Neighs:    0 ave 0 max 0 min
Histogram: 4 0 0 0 0 0 0 0 0 0

Total # of neighbors = 0
Ave neighs/atom = 0
Neighbor list builds = 0
Dangerous builds = 0
run 10    
Setting up run at Wed Jul 10 11:27:21 2019

Memory usage per processor = 52.9612 Mbytes
    Step    Atoms         KinEng            rke         Volume 
     771        1      1.6064103              0              4 
CFD Coupling established at step 780
     781        1      1.6194399              0              4 
Loop time of 4.17233e-05 on 4 procs for 10 steps with 1 atoms, finish time Wed Jul 10 11:27:21 2019


Pair  time (%) = 4.76837e-06 (11.4286)
Neigh time (%) = 0 (0)
Comm  time (%) = 7.62939e-06 (18.2857)
Outpt time (%) = 5.06639e-06 (12.1429)
Other time (%) = 2.42591e-05 (58.1429)

Nlocal:    0.25 ave 1 max 0 min
Histogram: 3 0 0 0 0 0 0 0 0 1
Nghost:    0.75 ave 1 max 0 min
Histogram: 1 0 0 0 0 0 0 0 0 3
Neighs:    0 ave 0 max 0 min
Histogram: 4 0 0 0 0 0 0 0 0 0

Total # of neighbors = 0
Ave neighs/atom = 0
Neighbor list builds = 0
Dangerous builds = 0
run 10    
Setting up run at Wed Jul 10 11:27:21 2019

Memory usage per processor = 52.9612 Mbytes
    Step    Atoms         KinEng            rke         Volume 
     781        1      1.6194399              0              4 
CFD Coupling established at step 790
     791        1       1.632522              0              4 
Loop time of 4.60148e-05 on 4 procs for 10 steps with 1 atoms, finish time Wed Jul 10 11:27:21 2019


Pair  time (%) = 4.29153e-06 (9.32642)
Neigh time (%) = 0 (0)
Comm  time (%) = 6.91414e-06 (15.0259)
Outpt time (%) = 5.78165e-06 (12.5648)
Other time (%) = 2.90275e-05 (63.0829)

Nlocal:    0.25 ave 1 max 0 min
Histogram: 3 0 0 0 0 0 0 0 0 1
Nghost:    0.75 ave 1 max 0 min
Histogram: 1 0 0 0 0 0 0 0 0 3
Neighs:    0 ave 0 max 0 min
Histogram: 4 0 0 0 0 0 0 0 0 0

Total # of neighbors = 0
Ave neighs/atom = 0
Neighbor list builds = 0
Dangerous builds = 0
run 10    
Setting up run at Wed Jul 10 11:27:21 2019

Memory usage per processor = 52.9612 Mbytes
    Step    Atoms         KinEng            rke         Volume 
     791        1       1.632522              0              4 
CFD Coupling established at step 800
     801        1      1.6456567              0              4 
Loop time of 0.000119925 on 4 procs for 10 steps with 1 atoms, finish time Wed Jul 10 11:27:21 2019


Pair  time (%) = 6.25849e-06 (5.21869)
Neigh time (%) = 0 (0)
Comm  time (%) = 7.21216e-06 (6.01392)
Outpt time (%) = 2.25306e-05 (18.7873)
Other time (%) = 8.39233e-05 (69.9801)

Nlocal:    0.25 ave 1 max 0 min
Histogram: 3 0 0 0 0 0 0 0 0 1
Nghost:    0.75 ave 1 max 0 min
Histogram: 1 0 0 0 0 0 0 0 0 3
Neighs:    0 ave 0 max 0 min
Histogram: 4 0 0 0 0 0 0 0 0 0

Total # of neighbors = 0
Ave neighs/atom = 0
Neighbor list builds = 0
Dangerous builds = 0
run 10    
Setting up run at Wed Jul 10 11:27:21 2019

Memory usage per processor = 52.9612 Mbytes
    Step    Atoms         KinEng            rke         Volume 
     801        1      1.6456567              0              4 
CFD Coupling established at step 810
     811        1      1.6588439              0              4 
Loop time of 4.3869e-05 on 4 procs for 10 steps with 1 atoms, finish time Wed Jul 10 11:27:21 2019


Pair  time (%) = 4.52995e-06 (10.3261)
Neigh time (%) = 0 (0)
Comm  time (%) = 8.70228e-06 (19.837)
Outpt time (%) = 5.48363e-06 (12.5)
Other time (%) = 2.51532e-05 (57.337)

Nlocal:    0.25 ave 1 max 0 min
Histogram: 3 0 0 0 0 0 0 0 0 1
Nghost:    0.75 ave 1 max 0 min
Histogram: 1 0 0 0 0 0 0 0 0 3
Neighs:    0 ave 0 max 0 min
Histogram: 4 0 0 0 0 0 0 0 0 0

Total # of neighbors = 0
Ave neighs/atom = 0
Neighbor list builds = 0
Dangerous builds = 0
run 10    
Setting up run at Wed Jul 10 11:27:21 2019

Memory usage per processor = 52.9612 Mbytes
    Step    Atoms         KinEng            rke         Volume 
     811        1      1.6588439              0              4 
CFD Coupling established at step 820
     821        1      1.6720837              0              4 
Loop time of 4.19617e-05 on 4 procs for 10 steps with 1 atoms, finish time Wed Jul 10 11:27:21 2019


Pair  time (%) = 4.29153e-06 (10.2273)
Neigh time (%) = 0 (0)
Comm  time (%) = 6.19888e-06 (14.7727)
Outpt time (%) = 4.82798e-06 (11.5057)
Other time (%) = 2.66433e-05 (63.4943)

Nlocal:    0.25 ave 1 max 0 min
Histogram: 3 0 0 0 0 0 0 0 0 1
Nghost:    0.75 ave 1 max 0 min
Histogram: 1 0 0 0 0 0 0 0 0 3
Neighs:    0 ave 0 max 0 min
Histogram: 4 0 0 0 0 0 0 0 0 0

Total # of neighbors = 0
Ave neighs/atom = 0
Neighbor list builds = 0
Dangerous builds = 0
run 10    
Setting up run at Wed Jul 10 11:27:21 2019

Memory usage per processor = 52.9612 Mbytes
    Step    Atoms         KinEng            rke         Volume 
     821        1      1.6720837              0              4 
CFD Coupling established at step 830
     831        1      1.6853762              0              4 
Loop time of 3.60012e-05 on 4 procs for 10 steps with 1 atoms, finish time Wed Jul 10 11:27:21 2019


Pair  time (%) = 2.38419e-06 (6.62252)
Neigh time (%) = 0 (0)
Comm  time (%) = 7.92742e-06 (22.0199)
Outpt time (%) = 4.29153e-06 (11.9205)
Other time (%) = 2.13981e-05 (59.4371)

Nlocal:    0.25 ave 1 max 0 min
Histogram: 3 0 0 0 0 0 0 0 0 1
Nghost:    0.75 ave 1 max 0 min
Histogram: 1 0 0 0 0 0 0 0 0 3
Neighs:    0 ave 0 max 0 min
Histogram: 4 0 0 0 0 0 0 0 0 0

Total # of neighbors = 0
Ave neighs/atom = 0
Neighbor list builds = 0
Dangerous builds = 0
run 10    
Setting up run at Wed Jul 10 11:27:21 2019

Memory usage per processor = 52.9612 Mbytes
    Step    Atoms         KinEng            rke         Volume 
     831        1      1.6853762              0              4 
CFD Coupling established at step 840
     841        1      1.6987212              0              4 
Loop time of 4.19617e-05 on 4 procs for 10 steps with 1 atoms, finish time Wed Jul 10 11:27:21 2019


Pair  time (%) = 5.60284e-06 (13.3523)
Neigh time (%) = 0 (0)
Comm  time (%) = 4.58956e-06 (10.9375)
Outpt time (%) = 4.76837e-06 (11.3636)
Other time (%) = 2.70009e-05 (64.3466)

Nlocal:    0.25 ave 1 max 0 min
Histogram: 3 0 0 0 0 0 0 0 0 1
Nghost:    0.75 ave 1 max 0 min
Histogram: 1 0 0 0 0 0 0 0 0 3
Neighs:    0 ave 0 max 0 min
Histogram: 4 0 0 0 0 0 0 0 0 0

Total # of neighbors = 0
Ave neighs/atom = 0
Neighbor list builds = 0
Dangerous builds = 0
run 10    
Setting up run at Wed Jul 10 11:27:21 2019

Memory usage per processor = 52.9612 Mbytes
    Step    Atoms         KinEng            rke         Volume 
     841        1      1.6987212              0              4 
CFD Coupling established at step 850
     851        1      1.7121188              0              4 
Loop time of 4.50611e-05 on 4 procs for 10 steps with 1 atoms, finish time Wed Jul 10 11:27:21 2019


Pair  time (%) = 4.29153e-06 (9.52381)
Neigh time (%) = 0 (0)
Comm  time (%) = 8.10623e-06 (17.9894)
Outpt time (%) = 5.78165e-06 (12.8307)
Other time (%) = 2.68817e-05 (59.6561)

Nlocal:    0.25 ave 1 max 0 min
Histogram: 3 0 0 0 0 0 0 0 0 1
Nghost:    0.75 ave 1 max 0 min
[...]


Pair  time (%) = 5.42402e-06 (13)
Neigh time (%) = 0 (0)
Comm  time (%) = 3.8147e-06 (9.14286)
Outpt time (%) = 5.78165e-06 (13.8571)
Other time (%) = 2.67029e-05 (64)

Nlocal:    0.25 ave 1 max 0 min
Histogram: 3 0 0 0 0 0 0 0 0 1
Nghost:    0.75 ave 1 max 0 min
Histogram: 1 0 0 0 0 0 0 0 0 3
Neighs:    0 ave 0 max 0 min
Histogram: 4 0 0 0 0 0 0 0 0 0

Total # of neighbors = 0
Ave neighs/atom = 0
Neighbor list builds = 0
Dangerous builds = 0
run 10    
Setting up run at Wed Jul 10 11:27:35 2019

Memory usage per processor = 52.9612 Mbytes
    Step    Atoms         KinEng            rke         Volume 
    4771        1      11.013155              0              4 
CFD Coupling established at step 4780
    4781        1      11.047207              0              4 
Loop time of 4.17233e-05 on 4 procs for 10 steps with 1 atoms, finish time Wed Jul 10 11:27:35 2019


Pair  time (%) = 3.51667e-06 (8.42857)
Neigh time (%) = 0 (0)
Comm  time (%) = 1.04904e-05 (25.1429)
Outpt time (%) = 5.30481e-06 (12.7143)
Other time (%) = 2.24113e-05 (53.7143)

Nlocal:    0.25 ave 1 max 0 min
Histogram: 3 0 0 0 0 0 0 0 0 1
Nghost:    0.75 ave 1 max 0 min
Histogram: 1 0 0 0 0 0 0 0 0 3
Neighs:    0 ave 0 max 0 min
Histogram: 4 0 0 0 0 0 0 0 0 0

Total # of neighbors = 0
Ave neighs/atom = 0
Neighbor list builds = 0
Dangerous builds = 0
run 10    
Setting up run at Wed Jul 10 11:27:35 2019

Memory usage per processor = 52.9612 Mbytes
    Step    Atoms         KinEng            rke         Volume 
    4781        1      11.047207              0              4 
CFD Coupling established at step 4790
    4791        1      11.081312              0              4 
Loop time of 4.1008e-05 on 4 procs for 10 steps with 1 atoms, finish time Wed Jul 10 11:27:35 2019


Pair  time (%) = 4.05312e-06 (9.88372)
Neigh time (%) = 0 (0)
Comm  time (%) = 8.9407e-06 (21.8023)
Outpt time (%) = 5.06639e-06 (12.3547)
Other time (%) = 2.29478e-05 (55.9593)

Nlocal:    0.25 ave 1 max 0 min
Histogram: 3 0 0 0 0 0 0 0 0 1
Nghost:    0.75 ave 1 max 0 min
Histogram: 1 0 0 0 0 0 0 0 0 3
Neighs:    0 ave 0 max 0 min
Histogram: 4 0 0 0 0 0 0 0 0 0

Total # of neighbors = 0
Ave neighs/atom = 0
Neighbor list builds = 0
Dangerous builds = 0
run 10    
Setting up run at Wed Jul 10 11:27:35 2019

Memory usage per processor = 52.9612 Mbytes
    Step    Atoms         KinEng            rke         Volume 
    4791        1      11.081312              0              4 
CFD Coupling established at step 4800
    4801        1       11.11547              0              4 
Loop time of 0.000112772 on 4 procs for 10 steps with 1 atoms, finish time Wed Jul 10 11:27:35 2019


Pair  time (%) = 4.76837e-06 (4.22833)
Neigh time (%) = 0 (0)
Comm  time (%) = 7.45058e-06 (6.60677)
Outpt time (%) = 2.34246e-05 (20.7717)
Other time (%) = 7.71284e-05 (68.3932)

Nlocal:    0.25 ave 1 max 0 min
Histogram: 3 0 0 0 0 0 0 0 0 1
Nghost:    0.75 ave 1 max 0 min
Histogram: 1 0 0 0 0 0 0 0 0 3
Neighs:    0 ave 0 max 0 min
Histogram: 4 0 0 0 0 0 0 0 0 0

Total # of neighbors = 0
Ave neighs/atom = 0
Neighbor list builds = 0
Dangerous builds = 0
run 10    
Setting up run at Wed Jul 10 11:27:35 2019

Memory usage per processor = 52.9612 Mbytes
    Step    Atoms         KinEng            rke         Volume 
    4801        1       11.11547              0              4 
CFD Coupling established at step 4810
    4811        1      11.149678              0              4 
Loop time of 4.45843e-05 on 4 procs for 10 steps with 1 atoms, finish time Wed Jul 10 11:27:35 2019


Pair  time (%) = 3.63588e-06 (8.15508)
Neigh time (%) = 0 (0)
Comm  time (%) = 9.05991e-06 (20.3209)
Outpt time (%) = 5.96046e-06 (13.369)
Other time (%) = 2.5928e-05 (58.1551)

Nlocal:    0.25 ave 1 max 0 min
Histogram: 3 0 0 0 0 0 0 0 0 1
Nghost:    0.75 ave 1 max 0 min
Histogram: 1 0 0 0 0 0 0 0 0 3
Neighs:    0 ave 0 max 0 min
Histogram: 4 0 0 0 0 0 0 0 0 0

Total # of neighbors = 0
Ave neighs/atom = 0
Neighbor list builds = 0
Dangerous builds = 0
run 10    
Setting up run at Wed Jul 10 11:27:35 2019

Memory usage per processor = 52.9612 Mbytes
    Step    Atoms         KinEng            rke         Volume 
    4811        1      11.149678              0              4 
CFD Coupling established at step 4820
    4821        1       11.18394              0              4 
Loop time of 3.76701e-05 on 4 procs for 10 steps with 1 atoms, finish time Wed Jul 10 11:27:35 2019


Pair  time (%) = 3.63588e-06 (9.6519)
Neigh time (%) = 0 (0)
Comm  time (%) = 5.126e-06 (13.6076)
Outpt time (%) = 6.02007e-06 (15.981)
Other time (%) = 2.28882e-05 (60.7595)

Nlocal:    0.25 ave 1 max 0 min
Histogram: 3 0 0 0 0 0 0 0 0 1
Nghost:    0.75 ave 1 max 0 min
Histogram: 1 0 0 0 0 0 0 0 0 3
Neighs:    0 ave 0 max 0 min
Histogram: 4 0 0 0 0 0 0 0 0 0

Total # of neighbors = 0
Ave neighs/atom = 0
Neighbor list builds = 0
Dangerous builds = 0
run 10    
Setting up run at Wed Jul 10 11:27:35 2019

Memory usage per processor = 52.9612 Mbytes
    Step    Atoms         KinEng            rke         Volume 
    4821        1       11.18394              0              4 
CFD Coupling established at step 4830
    4831        1      11.218254              0              4 
Loop time of 3.88622e-05 on 4 procs for 10 steps with 1 atoms, finish time Wed Jul 10 11:27:35 2019


Pair  time (%) = 3.63588e-06 (9.35583)
Neigh time (%) = 0 (0)
Comm  time (%) = 8.16584e-06 (21.0123)
Outpt time (%) = 5.42402e-06 (13.9571)
Other time (%) = 2.16365e-05 (55.6748)

Nlocal:    0.25 ave 1 max 0 min
Histogram: 3 0 0 0 0 0 0 0 0 1
Nghost:    0.75 ave 1 max 0 min
Histogram: 1 0 0 0 0 0 0 0 0 3
Neighs:    0 ave 0 max 0 min
Histogram: 4 0 0 0 0 0 0 0 0 0

Total # of neighbors = 0
Ave neighs/atom = 0
Neighbor list builds = 0
Dangerous builds = 0
run 10    
Setting up run at Wed Jul 10 11:27:35 2019

Memory usage per processor = 52.9612 Mbytes
    Step    Atoms         KinEng            rke         Volume 
    4831        1      11.218254              0              4 
CFD Coupling established at step 4840
    4841        1      11.252621              0              4 
Loop time of 3.75509e-05 on 4 procs for 10 steps with 1 atoms, finish time Wed Jul 10 11:27:35 2019


Pair  time (%) = 2.5034e-06 (6.66667)
Neigh time (%) = 0 (0)
Comm  time (%) = 8.10623e-06 (21.5873)
Outpt time (%) = 5.24521e-06 (13.9683)
Other time (%) = 2.16961e-05 (57.7778)

Nlocal:    0.25 ave 1 max 0 min
Histogram: 3 0 0 0 0 0 0 0 0 1
Nghost:    0.75 ave 1 max 0 min
Histogram: 1 0 0 0 0 0 0 0 0 3
Neighs:    0 ave 0 max 0 min
Histogram: 4 0 0 0 0 0 0 0 0 0

Total # of neighbors = 0
Ave neighs/atom = 0
Neighbor list builds = 0
Dangerous builds = 0
run 10    
Setting up run at Wed Jul 10 11:27:35 2019

Memory usage per processor = 52.9612 Mbytes
    Step    Atoms         KinEng            rke         Volume 
    4841        1      11.252621              0              4 
CFD Coupling established at step 4850
    4851        1       11.28704              0              4 
Loop time of 3.69549e-05 on 4 procs for 10 steps with 1 atoms, finish time Wed Jul 10 11:27:35 2019


Pair  time (%) = 3.99351e-06 (10.8065)
Neigh time (%) = 0 (0)
Comm  time (%) = 5.42402e-06 (14.6774)
Outpt time (%) = 5.48363e-06 (14.8387)
Other time (%) = 2.20537e-05 (59.6774)

Nlocal:    0.25 ave 1 max 0 min
Histogram: 3 0 0 0 0 0 0 0 0 1
Nghost:    0.75 ave 1 max 0 min
Histogram: 1 0 0 0 0 0 0 0 0 3
Neighs:    0 ave 0 max 0 min
Histogram: 4 0 0 0 0 0 0 0 0 0

Total # of neighbors = 0
Ave neighs/atom = 0
Neighbor list builds = 0
Dangerous builds = 0
run 10    
Setting up run at Wed Jul 10 11:27:35 2019

Memory usage per processor = 52.9612 Mbytes
    Step    Atoms         KinEng            rke         Volume 
    4851        1       11.28704              0              4 
CFD Coupling established at step 4860
    4861        1      11.321512              0              4 
Loop time of 3.69549e-05 on 4 procs for 10 steps with 1 atoms, finish time Wed Jul 10 11:27:35 2019


Pair  time (%) = 3.8147e-06 (10.3226)
Neigh time (%) = 0 (0)
Comm  time (%) = 3.8147e-06 (10.3226)
Outpt time (%) = 4.94719e-06 (13.3871)
Other time (%) = 2.43783e-05 (65.9677)

Nlocal:    0.25 ave 1 max 0 min
Histogram: 3 0 0 0 0 0 0 0 0 1
Nghost:    0.75 ave 1 max 0 min
Histogram: 1 0 0 0 0 0 0 0 0 3
Neighs:    0 ave 0 max 0 min
Histogram: 4 0 0 0 0 0 0 0 0 0

Total # of neighbors = 0
Ave neighs/atom = 0
Neighbor list builds = 0
Dangerous builds = 0
run 10    
Setting up run at Wed Jul 10 11:27:35 2019

Memory usage per processor = 52.9612 Mbytes
    Step    Atoms         KinEng            rke         Volume 
    4861        1      11.321512              0              4 
CFD Coupling established at step 4870
    4871        1      11.356035              0              4 
Loop time of 3.91006e-05 on 4 procs for 10 steps with 1 atoms, finish time Wed Jul 10 11:27:35 2019


Pair  time (%) = 2.68221e-06 (6.85976)
Neigh time (%) = 0 (0)
Comm  time (%) = 7.09295e-06 (18.1402)
Outpt time (%) = 5.54323e-06 (14.1768)
Other time (%) = 2.37823e-05 (60.8232)

Nlocal:    0.25 ave 1 max 0 min
Histogram: 3 0 0 0 0 0 0 0 0 1
Nghost:    0.75 ave 1 max 0 min
Histogram: 1 0 0 0 0 0 0 0 0 3
Neighs:    0 ave 0 max 0 min
Histogram: 4 0 0 0 0 0 0 0 0 0

Total # of neighbors = 0
Ave neighs/atom = 0
Neighbor list builds = 0
Dangerous builds = 0
run 10    
Setting up run at Wed Jul 10 11:27:35 2019

Memory usage per processor = 52.9612 Mbytes
    Step    Atoms         KinEng            rke         Volume 
    4871        1      11.356035              0              4 
CFD Coupling established at step 4880
    4881        1      11.390611              0              4 
Loop time of 3.79086e-05 on 4 procs for 10 steps with 1 atoms, finish time Wed Jul 10 11:27:35 2019


Pair  time (%) = 4.64916e-06 (12.2642)
Neigh time (%) = 0 (0)
Comm  time (%) = 6.49691e-06 (17.1384)
Outpt time (%) = 4.58956e-06 (12.1069)
Other time (%) = 2.21729e-05 (58.4906)

Nlocal:    0.25 ave 1 max 0 min
Histogram: 3 0 0 0 0 0 0 0 0 1
Nghost:    0.75 ave 1 max 0 min
Histogram: 1 0 0 0 0 0 0 0 0 3
Neighs:    0 ave 0 max 0 min
Histogram: 4 0 0 0 0 0 0 0 0 0

Total # of neighbors = 0
Ave neighs/atom = 0
Neighbor list builds = 0
Dangerous builds = 0
run 10    
Setting up run at Wed Jul 10 11:27:35 2019

Memory usage per processor = 52.9612 Mbytes
    Step    Atoms         KinEng            rke         Volume 
    4881        1      11.390611              0              4 
CFD Coupling established at step 4890
    4891        1      11.425239              0              4 
Loop time of 3.86238e-05 on 4 procs for 10 steps with 1 atoms, finish time Wed Jul 10 11:27:35 2019


Pair  time (%) = 6.49691e-06 (16.821)
Neigh time (%) = 0 (0)
Comm  time (%) = 2.38419e-06 (6.17284)
Outpt time (%) = 5.96046e-06 (15.4321)
Other time (%) = 2.37823e-05 (61.5741)

Nlocal:    0.25 ave 1 max 0 min
Histogram: 3 0 0 0 0 0 0 0 0 1
Nghost:    0.75 ave 1 max 0 min
Histogram: 1 0 0 0 0 0 0 0 0 3
Neighs:    0 ave 0 max 0 min
Histogram: 4 0 0 0 0 0 0 0 0 0

Total # of neighbors = 0
Ave neighs/atom = 0
Neighbor list builds = 0
Dangerous builds = 0
run 10    
Setting up run at Wed Jul 10 11:27:35 2019

Memory usage per processor = 52.9612 Mbytes
    Step    Atoms         KinEng            rke         Volume 
    4891        1      11.425239              0              4 
CFD Coupling established at step 4900
    4901        1       11.45992              0              4 
Loop time of 9.5129e-05 on 4 procs for 10 steps with 1 atoms, finish time Wed Jul 10 11:27:35 2019


Pair  time (%) = 1.72853e-06 (1.81704)
Neigh time (%) = 0 (0)
Comm  time (%) = 5.06639e-06 (5.32581)
Outpt time (%) = 2.06232e-05 (21.6792)
Other time (%) = 6.77109e-05 (71.1779)

Nlocal:    0.25 ave 1 max 0 min
Histogram: 3 0 0 0 0 0 0 0 0 1
Nghost:    0.75 ave 1 max 0 min
Histogram: 1 0 0 0 0 0 0 0 0 3
Neighs:    0 ave 0 max 0 min
Histogram: 4 0 0 0 0 0 0 0 0 0

Total # of neighbors = 0
Ave neighs/atom = 0
Neighbor list builds = 0
Dangerous builds = 0
run 10    
Setting up run at Wed Jul 10 11:27:35 2019

Memory usage per processor = 52.9612 Mbytes
    Step    Atoms         KinEng            rke         Volume 
    4901        1       11.45992              0              4 
CFD Coupling established at step 4910
    4911        1      11.494654              0              4 
Loop time of 3.60012e-05 on 4 procs for 10 steps with 1 atoms, finish time Wed Jul 10 11:27:35 2019


Pair  time (%) = 3.45707e-06 (9.60265)
Neigh time (%) = 0 (0)
Comm  time (%) = 5.126e-06 (14.2384)
Outpt time (%) = 5.48363e-06 (15.2318)
Other time (%) = 2.19345e-05 (60.9272)

Nlocal:    0.25 ave 1 max 0 min
Histogram: 3 0 0 0 0 0 0 0 0 1
Nghost:    0.75 ave 1 max 0 min
Histogram: 1 0 0 0 0 0 0 0 0 3
Neighs:    0 ave 0 max 0 min
Histogram: 4 0 0 0 0 0 0 0 0 0

Total # of neighbors = 0
Ave neighs/atom = 0
Neighbor list builds = 0
Dangerous builds = 0
run 10    
Setting up run at Wed Jul 10 11:27:35 2019

Memory usage per processor = 52.9612 Mbytes
    Step    Atoms         KinEng            rke         Volume 
    4911        1      11.494654              0              4 
CFD Coupling established at step 4920
    4921        1      11.529441              0              4 
Loop time of 3.79086e-05 on 4 procs for 10 steps with 1 atoms, finish time Wed Jul 10 11:27:35 2019


Pair  time (%) = 3.8147e-06 (10.0629)
Neigh time (%) = 0 (0)
Comm  time (%) = 5.126e-06 (13.522)
Outpt time (%) = 5.1856e-06 (13.6792)
Other time (%) = 2.37823e-05 (62.7358)

Nlocal:    0.25 ave 1 max 0 min
Histogram: 3 0 0 0 0 0 0 0 0 1
Nghost:    0.75 ave 1 max 0 min
Histogram: 1 0 0 0 0 0 0 0 0 3
Neighs:    0 ave 0 max 0 min
Histogram: 4 0 0 0 0 0 0 0 0 0

Total # of neighbors = 0
Ave neighs/atom = 0
Neighbor list builds = 0
Dangerous builds = 0
run 10    
Setting up run at Wed Jul 10 11:27:35 2019

Memory usage per processor = 52.9612 Mbytes
    Step    Atoms         KinEng            rke         Volume 
    4921        1      11.529441              0              4 
CFD Coupling established at step 4930
    4931        1      11.564281              0              4 
Loop time of 3.69549e-05 on 4 procs for 10 steps with 1 atoms, finish time Wed Jul 10 11:27:35 2019


Pair  time (%) = 5.00679e-06 (13.5484)
Neigh time (%) = 0 (0)
Comm  time (%) = 5.60284e-06 (15.1613)
Outpt time (%) = 5.1856e-06 (14.0323)
Other time (%) = 2.11596e-05 (57.2581)

Nlocal:    0.25 ave 1 max 0 min
Histogram: 3 0 0 0 0 0 0 0 0 1
Nghost:    0.75 ave 1 max 0 min
Histogram: 1 0 0 0 0 0 0 0 0 3
Neighs:    0 ave 0 max 0 min
Histogram: 4 0 0 0 0 0 0 0 0 0

Total # of neighbors = 0
Ave neighs/atom = 0
Neighbor list builds = 0
Dangerous builds = 0
run 10    
Setting up run at Wed Jul 10 11:27:35 2019

Memory usage per processor = 52.9612 Mbytes
    Step    Atoms         KinEng            rke         Volume 
    4931        1      11.564281              0              4 
CFD Coupling established at step 4940
    4941        1      11.599172              0              4 
Loop time of 3.76701e-05 on 4 procs for 10 steps with 1 atoms, finish time Wed Jul 10 11:27:35 2019


Pair  time (%) = 3.45707e-06 (9.17722)
Neigh time (%) = 0 (0)
Comm  time (%) = 4.88758e-06 (12.9747)
Outpt time (%) = 5.54323e-06 (14.7152)
Other time (%) = 2.37823e-05 (63.1329)

Nlocal:    0.25 ave 1 max 0 min
Histogram: 3 0 0 0 0 0 0 0 0 1
Nghost:    0.75 ave 1 max 0 min
Histogram: 1 0 0 0 0 0 0 0 0 3
Neighs:    0 ave 0 max 0 min
Histogram: 4 0 0 0 0 0 0 0 0 0

Total # of neighbors = 0
Ave neighs/atom = 0
Neighbor list builds = 0
Dangerous builds = 0
run 10    
Setting up run at Wed Jul 10 11:27:35 2019

Memory usage per processor = 52.9612 Mbytes
    Step    Atoms         KinEng            rke         Volume 
    4941        1      11.599172              0              4 
CFD Coupling established at step 4950
    4951        1      11.634116              0              4 
Loop time of 3.60012e-05 on 4 procs for 10 steps with 1 atoms, finish time Wed Jul 10 11:27:35 2019


Pair  time (%) = 3.69549e-06 (10.2649)
Neigh time (%) = 0 (0)
Comm  time (%) = 5.48363e-06 (15.2318)
Outpt time (%) = 5.24521e-06 (14.5695)
Other time (%) = 2.15769e-05 (59.9338)

Nlocal:    0.25 ave 1 max 0 min
Histogram: 3 0 0 0 0 0 0 0 0 1
Nghost:    0.75 ave 1 max 0 min
Histogram: 1 0 0 0 0 0 0 0 0 3
Neighs:    0 ave 0 max 0 min
Histogram: 4 0 0 0 0 0 0 0 0 0

Total # of neighbors = 0
Ave neighs/atom = 0
Neighbor list builds = 0
Dangerous builds = 0
run 10    
Setting up run at Wed Jul 10 11:27:35 2019

Memory usage per processor = 52.9612 Mbytes
    Step    Atoms         KinEng            rke         Volume 
    4951        1      11.634116              0              4 
CFD Coupling established at step 4960
    4961        1      11.669113              0              4 
Loop time of 3.79086e-05 on 4 procs for 10 steps with 1 atoms, finish time Wed Jul 10 11:27:35 2019


Pair  time (%) = 3.57628e-06 (9.43396)
Neigh time (%) = 0 (0)
Comm  time (%) = 5.48363e-06 (14.4654)
Outpt time (%) = 5.24521e-06 (13.8365)
Other time (%) = 2.36034e-05 (62.2642)

Nlocal:    0.25 ave 1 max 0 min
Histogram: 3 0 0 0 0 0 0 0 0 1
Nghost:    0.75 ave 1 max 0 min
Histogram: 1 0 0 0 0 0 0 0 0 3
Neighs:    0 ave 0 max 0 min
Histogram: 4 0 0 0 0 0 0 0 0 0

Total # of neighbors = 0
Ave neighs/atom = 0
Neighbor list builds = 0
Dangerous builds = 0
run 10    
Setting up run at Wed Jul 10 11:27:35 2019

Memory usage per processor = 52.9612 Mbytes
    Step    Atoms         KinEng            rke         Volume 
    4961        1      11.669113              0              4 
CFD Coupling established at step 4970
    4971        1      11.704163              0              4 
Loop time of 3.8147e-05 on 4 procs for 10 steps with 1 atoms, finish time Wed Jul 10 11:27:35 2019


Pair  time (%) = 3.63588e-06 (9.53125)
Neigh time (%) = 0 (0)
Comm  time (%) = 6.91414e-06 (18.125)
Outpt time (%) = 5.30481e-06 (13.9062)
Other time (%) = 2.22921e-05 (58.4375)

Nlocal:    0.25 ave 1 max 0 min
Histogram: 3 0 0 0 0 0 0 0 0 1
Nghost:    0.75 ave 1 max 0 min
Histogram: 1 0 0 0 0 0 0 0 0 3
Neighs:    0 ave 0 max 0 min
Histogram: 4 0 0 0 0 0 0 0 0 0

Total # of neighbors = 0
Ave neighs/atom = 0
Neighbor list builds = 0
Dangerous builds = 0
run 10    
Setting up run at Wed Jul 10 11:27:35 2019

Memory usage per processor = 52.9612 Mbytes
    Step    Atoms         KinEng            rke         Volume 
    4971        1      11.704163              0              4 
CFD Coupling established at step 4980
    4981        1      11.739264              0              4 
Loop time of 3.50475e-05 on 4 procs for 10 steps with 1 atoms, finish time Wed Jul 10 11:27:35 2019


Pair  time (%) = 3.39746e-06 (9.69388)
Neigh time (%) = 0 (0)
Comm  time (%) = 4.88758e-06 (13.9456)
Outpt time (%) = 6.02007e-06 (17.1769)
Other time (%) = 2.07424e-05 (59.1837)

Nlocal:    0.25 ave 1 max 0 min
Histogram: 3 0 0 0 0 0 0 0 0 1
Nghost:    0.75 ave 1 max 0 min
Histogram: 1 0 0 0 0 0 0 0 0 3
Neighs:    0 ave 0 max 0 min
Histogram: 4 0 0 0 0 0 0 0 0 0

Total # of neighbors = 0
Ave neighs/atom = 0
Neighbor list builds = 0
Dangerous builds = 0
run 10    
Setting up run at Wed Jul 10 11:27:35 2019

Memory usage per processor = 52.9612 Mbytes
    Step    Atoms         KinEng            rke         Volume 
    4981        1      11.739264              0              4 
CFD Coupling established at step 4990
    4991        1      11.774418              0              4 
Loop time of 3.79086e-05 on 4 procs for 10 steps with 1 atoms, finish time Wed Jul 10 11:27:35 2019


Pair  time (%) = 2.80142e-06 (7.38994)
Neigh time (%) = 0 (0)
Comm  time (%) = 6.67572e-06 (17.6101)
Outpt time (%) = 5.72205e-06 (15.0943)
Other time (%) = 2.27094e-05 (59.9057)

Nlocal:    0.25 ave 1 max 0 min
Histogram: 3 0 0 0 0 0 0 0 0 1
Nghost:    0.75 ave 1 max 0 min
Histogram: 1 0 0 0 0 0 0 0 0 3
Neighs:    0 ave 0 max 0 min
Histogram: 4 0 0 0 0 0 0 0 0 0

Total # of neighbors = 0
Ave neighs/atom = 0
Neighbor list builds = 0
Dangerous builds = 0
